ITEM: TIMESTEP
0
ITEM: NUMBER OF ATOMS
4000
ITEM: BOX BOUNDS pp pp pp
0.0000000000000000e+00 1.6795961913825074e+01
0.0000000000000000e+00 1.6795961913825074e+01
0.0000000000000000e+00 1.6795961913825074e+01
ITEM: ATOMS id type x y z vx vy vz
1 1 0 0 0 -2.0075 -0.423888 0.615383
2 1 0.839798 0.839798 0 0.410675 -0.325723 0.193911
3 1 0.839798 0 0.839798 -0.555868 -1.02979 -0.646157
4 1 0 0.839798 0.839798 -1.18436 -1.29577 0.954576
5 1 1.6796 0 0 -0.908365 -1.28948 -1.95335
6 1 2.51939 0.839798 0 -1.04408 -1.36577 0.61833
7 1 2.51939 0 0.839798 -0.885645 0.271103 0.969434
8 1 1.6796 0.839798 0.839798 -0.549016 1.34848 -2.24165
9 1 3.35919 0 0 0.210151 -0.118956 0.202216
10 1 4.19899 0.839798 0 2.09846 1.41463 0.479366
11 1 4.19899 0 0.839798 0.223374 0.50443 -1.36019
12 1 3.35919 0.839798 0.839798 -1.71913 1.00408 1.45989
13 1 5.03879 0 0 0.12798 -1.09333 -0.413765
14 1 5.87859 0.839798 0 0.89304 -1.91439 0.208577
15 1 5.87859 0 0.839798 -0.145839 0.6896 -0.28777
16 1 5.03879 0.839798 0.839798 0.185885 0.600766 0.112552
17 1 6.71838 0 0 1.01453 0.68992 -0.730435
18 1 7.55818 0.839798 0 -0.827212 -0.301441 1.13337
19 1 7.55818 0 0.839798 0.589712 -0.929532 1.5145
20 1 6.71838 0.839798 0.839798 0.420112 -0.856588 -1.57864
21 1 8.39798 0 0 -0.31293 -0.618058 1.11837
22 1 9.23778 0.839798 0 0.72424 1.70817 -1.37546
23 1 9.23778 0 0.839798 0.060259 0.160011 0.190169
24 1 8.39798 0.839798 0.839798 0.764591 1.45608 0.767802
25 1 10.0776 0 0 2.36311 0.977776 1.00317
26 1 10.9174 0.839798 0 -1.01852 -1.5162 -0.645022
27 1 10.9174 0 0.839798 1.08119 0.510342 1.36092
28 1 10.0776 0.839798 0.839798 -0.0733565 0.689448 0.310142
29 1 11.7572 0 0 0.331359 -0.461287 -0.284435
30 1 12.597 0.839798 0 -0.299056 0.06894 0.311147
31 1 12.597 0 0.839798 0.272232 0.557998 -0.696431
32 1 11.7572 0.839798 0.839798 -0.39557 0.223709 1.22259
33 1 13.4368 0 0 0.00416911 0.357573 -1.69852
34 1 14.2766 0.839798 0 0.0470985 1.11206 1.74888
35 1 14.2766 0 0.839798 -0.303983 -1.47413 -0.797418
36 1 13.4368 0.839798 0.839798 1.23464 -0.559992 1.31201
37 1 15.1164 0 0 1.11532 1.47831 0.467859
38 1 15.9562 0.839798 0 0.464203 1.37384 1.45222
39 1 15.9562 0 0.839798 -0.921439 0.169203 -0.791718
40 1 15.1164 0.839798 0.839798 -0.195709 -0.217051 1.53426
41 1 0 1.6796 0 1.15964 1.16104 -0.544929
42 1 0.839798 2.51939 0 0.141417 1.16487 0.504587
43 1 0.839798 1.6796 0.839798 0.989115 0.352916 0.561927
44 1 0 2.51939 0.839798 0.107603 1.58041 0.958052
45 1 1.6796 1.6796 0 -0.716404 0.432107 -1.31886
46 1 2.51939 2.51939 0 0.278291 -0.657403 -0.203043
47 1 2.51939 1.6796 0.839798 1.64761 0.499609 -0.861889
48 1 1.6796 2.51939 0.839798 -1.78803 0.5209 0.104263
49 1 3.35919 1.6796 0 1.69117 0.589584 -0.343059
50 1 4.19899 2.51939 0 0.592716 0.694344 -0.316329
51 1 4.19899 1.6796 0.839798 -0.427709 -1.14261 -0.5105
52 1 3.35919 2.51939 0.839798 -0.42444 0.29282 -0.0701417
53 1 5.03879 1.6796 0 0.907314 0.903296 -1.1103
54 1 5.87859 2.51939 0 -1.95449 -0.430937 -0.279904
55 1 5.87859 1.6796 0.839798 1.44909 0.865877 -0.703065
56 1 5.03879 2.51939 0.839798 -0.231604 1.77291 -1.12012
57 1 6.71838 1.6796 0 1.48433 0.315442 0.285253
58 1 7.55818 2.51939 0 -0.340677 0.305807 -0.706098
59 1 7.55818 1.6796 0.839798 -0.421907 -0.389812 -0.760822
60 1 6.71838 2.51939 0.839798 -1.33391 0.319042 0.593468
61 1 8.39798 1.6796 0 0.0871926 -0.459877 -0.631425
62 1 9.23778 2.51939 0 -1.01758 -0.449821 0.825987
63 1 9.23778 1.6796 0.839798 -0.198755 0.430658 -0.124266
64 1 8.39798 2.51939 0.839798 -0.512588 0.213637 0.557877
65 1 10.0776 1.6796 0 -0.981509 -1.05226 2.37883
66 1 10.9174 2.51939 0 1.64021 -0.722497 -0.586206
67 1 10.9174 1.6796 0.839798 -0.0465556 -1.47245 -0.0488889
68 1 10.0776 2.51939 0.839798 0.755893 1.2426 -0.853068
69 1 11.7572 1.6796 0 -0.693922 -0.208611 0.38683
70 1 12.597 2.51939 0 -0.0301036 -0.866006 0.278538
71 1 12.597 1.6796 0.839798 -1.3819 -1.48153 -1.16664
72 1 11.7572 2.51939 0.839798 -0.719643 0.922905 0.904525
73 1 13.4368 1.6796 0 -0.376069 -0.108198 -0.88124
74 1 14.2766 2.51939 0 0.204145 -0.796304 0.242584
75 1 14.2766 1.6796 0.839798 -1.12089 0.528247 -0.39166
76 1 13.4368 2.51939 0.839798 -0.357684 0.957901 0.717117
77 1 15.1164 1.6796 0 -1.36682 -2.15076 -0.102481
78 1 15.9562 2.51939 0 -0.584789 -0.470012 -0.76029
79 1 15.9562 1.6796 0.839798 0.251835 -0.60873 0.0531033
80 1 15.1164 2.51939 0.839798 0.52416 1.18017 -0.0309258
81 1 0 3.35919 0 -0.215481 0.789925 -0.475201
82 1 0.839798 4.19899 0 -0.793355 0.546004 -0.229189
83 1 0.839798 3.35919 0.839798 0.550122 -0.600509 -0.0340539
84 1 0 4.19899 0.839798 -1.62945 1.66382 -0.111068
85 1 1.6796 3.35919 0 -0.0501453 -1.07824 2.3468
86 1 2.51939 4.19899 0 0.0859406 -0.990913 1.32418
87 1 2.51939 3.35919 0.839798 -0.295814 -0.851625 1.90776
88 1 1.6796 4.19899 0.839798 -0.840253 -0.0522887 -0.143042
89 1 3.35919 3.35919 0 0.0895985 -0.327951 0.671265
90 1 4.19899 4.19899 0 -2.29965 -0.110409 -0.00543121
91 1 4.19899 3.35919 0.839798 -0.0321405 -2.94266 -1.54911
92 1 3.35919 4.19899 0.839798 -1.17924 1.26842 1.13063
93 1 5.03879 3.35919 0 -0.452842 0.494802 0.999005
94 1 5.87859 4.19899 0 -0.0748303 -0.0121558 -1.06535
95 1 5.87859 3.35919 0.839798 -0.930102 0.282447 0.592608
96 1 5.03879 4.19899 0.839798 -1.37989 -0.452436 -0.931212
97 1 6.71838 3.35919 0 1.38739 -1.16231 -0.310055
98 1 7.55818 4.19899 0 -2.91346 -0.566462 -0.807027
99 1 7.55818 3.35919 0.839798 -0.518238 -0.868788 2.46872
100 1 6.71838 4.19899 0.839798 0.37682 1.14239 -0.00350161
101 1 8.39798 3.35919 0 -1.15293 0.0726869 -0.271433
102 1 9.23778 4.19899 0 -0.798029 -0.353676 -0.694136
103 1 9.23778 3.35919 0.839798 -0.495963 -0.0180447 0.0233713
104 1 8.39798 4.19899 0.839798 -1.15531 1.04403 0.44283
105 1 10.0776 3.35919 0 1.02437 -0.431097 0.908945
106 1 10.9174 4.19899 0 1.59075 2.04557 0.119708
107 1 10.9174 3.35919 0.839798 -0.644273 -1.81169 -1.54312
108 1 10.0776 4.19899 0.839798 -3.11554 -0.87347 0.783406
109 1 11.7572 3.35919 0 -0.251072 -0.312722 0.487771
110 1 12.597 4.19899 0 -0.829849 0.831057 -1.06134
111 1 12.597 3.35919 0.839798 -0.0579034 -1.1834 1.39305
112 1 11.7572 4.19899 0.839798 -2.13291 0.987944 0.816128
113 1 13.4368 3.35919 0 1.10668 0.874003 -1.08708
114 1 14.2766 4.19899 0 0.644902 -0.155197 0.435489
115 1 14.2766 3.35919 0.839798 -0.300658 -0.696884 0.0708943
116 1 13.4368 4.19899 0.839798 0.346336 1.43776 0.469166
117 1 15.1164 3.35919 0 0.297402 0.214142 -0.38541
118 1 15.9562 4.19899 0 0.00690095 -0.25305 -0.456263
119 1 15.9562 3.35919 0.839798 -0.0801262 -0.125182 -1.1107
120 1 15.1164 4.19899 0.839798 2.22594 -0.427107 2.56265
121 1 0 5.03879 0 0.899837 -1.38697 0.601956
122 1 0.839798 5.87859 0 0.617387 -0.707655 -0.637841
123 1 0.839798 5.03879 0.839798 0.904464 -0.871264 -0.492916
124 1 0 5.87859 0.839798 0.799909 -0.356694 1.03795
125 1 1.6796 5.03879 0 -0.841951 1.54496 0.0159652
126 1 2.51939 5.87859 0 -1.59547 0.873519 0.153009
127 1 2.51939 5.03879 0.839798 -0.877598 0.821573 -0.497511
128 1 1.6796 5.87859 0.839798 -0.364169 -0.223542 -0.489119
129 1 3.35919 5.03879 0 -1.1333 -0.118589 -1.06534
130 1 4.19899 5.87859 0 0.256571 1.04285 -0.394928
131 1 4.19899 5.03879 0.839798 0.564454 0.110508 -0.823178
132 1 3.35919 5.87859 0.839798 -0.0873914 -1.51079 1.69609
133 1 5.03879 5.03879 0 0.299098 -0.49903 -0.824069
134 1 5.87859 5.87859 0 -1.31172 -0.109053 0.171384
135 1 5.87859 5.03879 0.839798 -0.524837 -0.118081 -0.0431222
136 1 5.03879 5.87859 0.839798 -1.20296 -0.700833 0.104434
137 1 6.71838 5.03879 0 0.78915 1.28071 0.523097
138 1 7.55818 5.87859 0 0.722935 1.60984 1.00313
139 1 7.55818 5.03879 0.839798 -0.885565 -1.27315 -1.45512
140 1 6.71838 5.87859 0.839798 1.94932 0.345523 1.58427
141 1 8.39798 5.03879 0 -0.908238 1.77107 0.1528
142 1 9.23778 5.87859 0 -0.994286 -0.0845144 1.28922
143 1 9.23778 5.03879 0.839798 0.326145 0.245435 0.552144
144 1 8.39798 5.87859 0.839798 -1.87359 0.181883 1.76918
145 1 10.0776 5.03879 0 -0.179565 -0.32608 0.556936
146 1 10.9174 5.87859 0 0.108893 0.695133 -0.4267
147 1 10.9174 5.03879 0.839798 -0.818519 -0.5232 -1.46173
148 1 10.0776 5.87859 0.839798 2.23491 0.89181 0.0555001
149 1 11.7572 5.03879 0 0.851831 0.824422 -0.324926
150 1 12.597 5.87859 0 1.41051 0.133842 0.157347
151 1 12.597 5.03879 0.839798 -0.206567 -0.305532 -0.667526
152 1 11.7572 5.87859 0.839798 -0.0685109 0.0383099 1.82977
153 1 13.4368 5.03879 0 1.00221 0.423457 0.196101
154 1 14.2766 5.87859 0 0.852373 -2.0425 1.38845
155 1 14.2766 5.03879 0.839798 0.189011 -0.517168 0.81725
156 1 13.4368 5.87859 0.839798 0.245515 -1.01441 0.791441
157 1 15.1164 5.03879 0 -0.273777 1.00261 0.505049
158 1 15.9562 5.87859 0 -0.633657 -0.916267 0.116594
159 1 15.9562 5.03879 0.839798 -0.431049 -0.263664 2.33126
160 1 15.1164 5.87859 0.839798 -0.655198 1.35426 -0.704821
161 1 0 6.71838 0 -0.918831 -1.68999 2.20736
162 1 0.839798 7.55818 0 0.388434 0.408399 0.294231
163 1 0.839798 6.71838 0.839798 -0.388333 0.972078 -0.411385
164 1 0 7.55818 0.839798 0.433116 0.484611 -0.509379
165 1 1.6796 6.71838 0 0.492095 -0.677724 2.20331
166 1 2.51939 7.55818 0 -0.651259 -0.940215 -0.591914
167 1 2.51939 6.71838 0.839798 0.0879746 -1.57288 2.38346
168 1 1.6796 7.55818 0.839798 1.22561 -0.774133 -1.55139
169 1 3.35919 6.71838 0 0.992799 1.43552 -1.23741
170 1 4.19899 7.55818 0 -1.54302 1.71938 0.180435
171 1 4.19899 6.71838 0.839798 0.0624745 0.725111 -1.1686
172 1 3.35919 7.55818 0.839798 0.146459 0.188999 -1.09159
173 1 5.03879 6.71838 0 -0.823786 -1.70812 0.283076
174 1 5.87859 7.55818 0 -1.6601 2.54596 -0.142414
175 1 5.87859 6.71838 0.839798 -0.1494 1.43153 0.961022
176 1 5.03879 7.55818 0.839798 0.588498 0.566916 1.81319
177 1 6.71838 6.71838 0 1.94091 0.483123 0.102719
178 1 7.55818 7.55818 0 -1.17805 -0.675996 -0.155629
179 1 7.55818 6.71838 0.839798 -0.0318327 0.300245 -0.884445
180 1 6.71838 7.55818 0.839798 0.617655 -0.373899 0.64072
181 1 8.39798 6.71838 0 0.226259 1.24557 -0.666184
182 1 9.23778 7.55818 0 0.797494 -1.06567 -0.04492
183 1 9.23778 6.71838 0.839798 -1.46179 -1.07839 1.26665
184 1 8.39798 7.55818 0.839798 0.0541582 0.68596 -0.644192
185 1 10.0776 6.71838 0 1.42921 -0.329658 -2.15154
186 1 10.9174 7.55818 0 -1.08866 0.292179 -0.793466
187 1 10.9174 6.71838 0.839798 0.427927 -0.150158 0.00508733
188 1 10.0776 7.55818 0.839798 -0.422772 -0.125388 -0.19716
189 1 11.7572 6.71838 0 0.887201 -2.22337 0.850366
190 1 12.597 7.55818 0 0.273531 -1.30277 0.178797
191 1 12.597 6.71838 0.839798 0.308564 0.418839 -0.513394
192 1 11.7572 7.55818 0.839798 1.82919 -0.598038 1.10372
193 1 13.4368 6.71838 0 0.103905 0.84521 -0.734253
194 1 14.2766 7.55818 0 -0.125251 0.703322 -2.091
195 1 14.2766 6.71838 0.839798 1.24514 1.85838 -0.835106
196 1 13.4368 7.55818 0.839798 -0.117751 0.192044 0.220216
197 1 15.1164 6.71838 0 -0.934367 1.60842 1.39091
198 1 15.9562 7.55818 0 -1.31195 -0.366395 1.08586
199 1 15.9562 6.71838 0.839798 -0.404422 -0.120058 0.405104
200 1 15.1164 7.55818 0.839798 -1.04396 -0.422778 -1.33578
201 1 0 8.39798 0 0.976184 0.93591 -1.71491
202 1 0.839798 9.23778 0 0.973023 1.20384 0.174035
203 1 0.839798 8.39798 0.839798 1.35897 -1.04164 1.79805
204 1 0 9.23778 0.839798 0.166128 -1.55019 0.430368
205 1 1.6796 8.39798 0 -0.256433 0.214029 -0.522804
206 1 2.51939 9.23778 0 -1.79247 1.66909 0.65871
207 1 2.51939 8.39798 0.839798 0.0368909 1.30629 0.196931
208 1 1.6796 9.23778 0.839798 -1.73505 0.438205 -0.452929
209 1 3.35919 8.39798 0 0.100725 -1.35445 0.446581
210 1 4.19899 9.23778 0 -1.4637 0.0509307 0.480221
211 1 4.19899 8.39798 0.839798 0.029396 -0.421418 -0.707414
212 1 3.35919 9.23778 0.839798 -0.262068 0.889931 -0.793039
213 1 5.03879 8.39798 0 0.795313 1.80402 -1.88063
214 1 5.87859 9.23778 0 -1.12002 1.57151 0.208799
215 1 5.87859 8.39798 0.839798 -1.44702 1.03258 0.246445
216 1 5.03879 9.23778 0.839798 -0.545884 0.718506 -0.294616
217 1 6.71838 8.39798 0 0.30551 -0.637728 -0.804818
218 1 7.55818 9.23778 0 -0.213766 1.23085 0.780879
219 1 7.55818 8.39798 0.839798 1.18552 -0.706618 0.42505
220 1 6.71838 9.23778 0.839798 -1.30361 1.56139 -0.541976
221 1 8.39798 8.39798 0 -0.0102918 0.765269 -0.470013
222 1 9.23778 9.23778 0 0.791834 0.724168 2.19277
223 1 9.23778 8.39798 0.839798 -0.934533 -0.568243 0.803467
224 1 8.39798 9.23778 0.839798 0.995224 -0.356599 1.21705
225 1 10.0776 8.39798 0 0.200014 -1.83358 0.484463
226 1 10.9174 9.23778 0 -0.478384 0.125153 -0.796228
227 1 10.9174 8.39798 0.839798 -0.0850673 -0.844845 1.04199
228 1 10.0776 9.23778 0.839798 -1.78856 1.16741 -0.253515
229 1 11.7572 8.39798 0 -0.775548 -3.4763 -0.538318
230 1 12.597 9.23778 0 1.14013 2.55883 1.0239
231 1 12.597 8.39798 0.839798 -0.436263 -0.336341 0.982814
232 1 11.7572 9.23778 0.839798 -0.366181 0.867841 -0.374969
233 1 13.4368 8.39798 0 -1.1181 0.185771 -0.647847
234 1 14.2766 9.23778 0 -1.41658 -0.124643 -1.01488
235 1 14.2766 8.39798 0.839798 -1.05559 -0.529239 -0.287511
236 1 13.4368 9.23778 0.839798 0.0523947 -0.193541 0.00894159
237 1 15.1164 8.39798 0 -1.51518 0.037533 0.729593
238 1 15.9562 9.23778 0 -0.995567 0.802139 -0.101802
239 1 15.9562 8.39798 0.839798 -1.44618 -0.0356544 0.125478
240 1 15.1164 9.23778 0.839798 -0.322751 0.505049 -1.01206
241 1 0 10.0776 0 0.667094 -0.458093 0.754313
242 1 0.839798 10.9174 0 -0.750358 0.843256 -1.17536
243 1 0.839798 10.0776 0.839798 0.727567 -1.79224 0.696915
244 1 0 10.9174 0.839798 1.6786 -0.0639346 -1.31807
245 1 1.6796 10.0776 0 0.778508 0.0613615 -1.30426
246 1 2.51939 10.9174 0 0.473465 0.428925 0.204537
247 1 2.51939 10.0776 0.839798 -0.854287 0.282161 -0.177229
248 1 1.6796 10.9174 0.839798 0.538011 -1.31394 -0.841217
249 1 3.35919 10.0776 0 0.104449 -0.147704 0.0871633
250 1 4.19899 10.9174 0 0.661003 1.09259 -0.720618
251 1 4.19899 10.0776 0.839798 0.295801 1.67912 0.468842
252 1 3.35919 10.9174 0.839798 1.53388 -0.384906 -0.343718
253 1 5.03879 10.0776 0 0.397786 -0.812898 -0.489827
254 1 5.87859 10.9174 0 -1.06316 -1.82948 -0.109021
255 1 5.87859 10.0776 0.839798 0.193073 0.734437 0.744515
256 1 5.03879 10.9174 0.839798 0.342702 -0.458072 -0.137817
257 1 6.71838 10.0776 0 0.153881 -0.912949 0.73409
258 1 7.55818 10.9174 0 -0.350341 -0.693768 0.80971
259 1 7.55818 10.0776 0.839798 -0.0422462 -0.814128 -1.08957
260 1 6.71838 10.9174 0.839798 -0.184001 -0.418544 -0.96416
261 1 8.39798 10.0776 0 1.16859 -1.08692 -0.0611833
262 1 9.23778 10.9174 0 1.0087 -1.04789 0.159176
263 1 9.23778 10.0776 0.839798 1.01326 0.627828 0.739287
264 1 8.39798 10.9174 0.839798 -0.618179 0.10593 1.89631
265 1 10.0776 10.0776 0 -0.659601 1.9728 0.122451
266 1 10.9174 10.9174 0 1.20484 1.36358 1.78322
267 1 10.9174 10.0776 0.839798 1.76821 -0.185121 -0.0733144
268 1 10.0776 10.9174 0.839798 0.332422 -0.554402 0.691798
269 1 11.7572 10.0776 0 0.299448 -2.19376 1.29446
270 1 12.597 10.9174 0 3.10983 0.649121 -3.0855
271 1 12.597 10.0776 0.839798 0.200323 -1.55434 -0.489799
272 1 11.7572 10.9174 0.839798 0.899671 0.675307 0.742198
273 1 13.4368 10.0776 0 1.31236 -0.825647 -1.30822
274 1 14.2766 10.9174 0 -1.19547 -1.30386 -0.480655
275 1 14.2766 10.0776 0.839798 -1.0915 -0.257153 -1.31807
276 1 13.4368 10.9174 0.839798 -1.12402 0.0210085 0.203397
277 1 15.1164 10.0776 0 2.51982 0.126828 -0.636629
278 1 15.9562 10.9174 0 1.08284 0.991476 -0.301686
279 1 15.9562 10.0776 0.839798 0.901917 1.37564 0.152854
280 1 15.1164 10.9174 0.839798 -1.03416 0.471501 0.88456
281 1 0 11.7572 0 -1.01075 0.102252 -0.675451
282 1 0.839798 12.597 0 -0.410458 -0.295642 0.352461
283 1 0.839798 11.7572 0.839798 1.42962 -0.0906104 -0.187262
284 1 0 12.597 0.839798 -0.174946 -1.08354 -1.49005
285 1 1.6796 11.7572 0 0.143798 -1.5974 2.14459
286 1 2.51939 12.597 0 0.154915 0.0369003 -1.76575
287 1 2.51939 11.7572 0.839798 0.331072 -0.931187 -0.56977
288 1 1.6796 12.597 0.839798 -0.661276 -0.190678 -0.309752
289 1 3.35919 11.7572 0 -1.18275 1.01305 -0.0616996
290 1 4.19899 12.597 0 -1.74687 -0.760053 -0.698957
291 1 4.19899 11.7572 0.839798 -1.2717 0.540487 1.08937
292 1 3.35919 12.597 0.839798 0.266149 1.09744 2.13236
293 1 5.03879 11.7572 0 -1.14001 -0.936316 0.489103
294 1 5.87859 12.597 0 -0.485463 0.73258 -0.217409
295 1 5.87859 11.7572 0.839798 0.493106 1.48243 0.0928435
296 1 5.03879 12.597 0.839798 -0.434766 -1.01371 -0.398181
297 1 6.71838 11.7572 0 0.0949554 -0.716724 -1.4746
298 1 7.55818 12.597 0 -0.0648176 0.613549 0.5321
299 1 7.55818 11.7572 0.839798 -0.148957 -0.168009 -0.357229
300 1 6.71838 12.597 0.839798 -0.589879 0.109082 -0.135992
301 1 8.39798 11.7572 0 0.156641 0.756312 -1.13823
302 1 9.23778 12.597 0 -0.217767 1.15192 1.77889
303 1 9.23778 11.7572 0.839798 0.306373 -2.17059 1.41962
304 1 8.39798 12.597 0.839798 0.789798 0.600338 0.0926029
305 1 10.0776 11.7572 0 -0.296939 0.162546 -0.383867
306 1 10.9174 12.597 0 -0.684701 0.428349 0.80527
307 1 10.9174 11.7572 0.839798 0.198645 -0.592672 -0.489628
308 1 10.0776 12.597 0.839798 -0.114352 0.256157 -0.0200062
309 1 11.7572 11.7572 0 2.32066 0.344156 0.802916
310 1 12.597 12.597 0 -0.29828 -1.15465 0.230575
311 1 12.597 11.7572 0.839798 -1.08833 0.292451 0.761164
312 1 11.7572 12.597 0.839798 0.269082 -0.366061 -0.776883
313 1 13.4368 11.7572 0 -1.70399 -0.0158985 -1.98342
314 1 14.2766 12.597 0 0.115737 -0.400469 -0.935449
315 1 14.2766 11.7572 0.839798 -1.59954 0.0234337 -0.813388
316 1 13.4368 12.597 0.839798 0.305962 1.15313 0.410216
317 1 15.1164 11.7572 0 1.03333 0.102273 -2.06326
318 1 15.9562 12.597 0 0.0550831 -1.32659 -0.237639
319 1 15.9562 11.7572 0.839798 0.789201 0.836645 -1.626
320 1 15.1164 12.597 0.839798 -0.278825 0.455304 -1.03881
321 1 0 13.4368 0 -0.800296 -0.123649 1.75798
322 1 0.839798 14.2766 0 -1.14757 -0.801024 -1.4716
323 1 0.839798 13.4368 0.839798 -1.19609 -0.869183 -2.81122
324 1 0 14.2766 0.839798 1.09526 -1.03513 -0.485605
325 1 1.6796 13.4368 0 -0.370465 0.627415 -0.255271
326 1 2.51939 14.2766 0 -0.960087 -1.63684 -0.630179
327 1 2.51939 13.4368 0.839798 1.25001 0.109486 -2.16204
328 1 1.6796 14.2766 0.839798 -1.96116 0.71356 0.808647
329 1 3.35919 13.4368 0 -0.0104661 -0.268743 -0.127506
330 1 4.19899 14.2766 0 -0.595603 1.51262 0.289437
331 1 4.19899 13.4368 0.839798 0.294474 0.754178 -1.14598
332 1 3.35919 14.2766 0.839798 0.301303 0.231124 -1.42726
333 1 5.03879 13.4368 0 1.48067 -1.13678 0.097678
334 1 5.87859 14.2766 0 1.3316 -0.944714 -1.26889
335 1 5.87859 13.4368 0.839798 1.57638 1.72556 1.48212
336 1 5.03879 14.2766 0.839798 0.854163 0.711635 -0.989969
337 1 6.71838 13.4368 0 0.300222 0.911094 0.255545
338 1 7.55818 14.2766 0 -0.00581271 1.95588 0.409698
339 1 7.55818 13.4368 0.839798 0.543523 -1.77051 -0.519754
340 1 6.71838 14.2766 0.839798 1.17577 -1.86104 -1.86243
341 1 8.39798 13.4368 0 -0.25806 0.817384 0.850793
342 1 9.23778 14.2766 0 -1.96732 2.45475 0.356862
343 1 9.23778 13.4368 0.839798 0.257894 -0.557907 -0.522432
344 1 8.39798 14.2766 0.839798 0.40194 -0.398607 -0.539547
345 1 10.0776 13.4368 0 0.460416 1.48739 -1.24497
346 1 10.9174 14.2766 0 0.812586 -0.926412 -0.766647
347 1 10.9174 13.4368 0.839798 0.988155 -0.595799 -0.968995
348 1 10.0776 14.2766 0.839798 -1.09682 2.06483 0.497345
349 1 11.7572 13.4368 0 0.26857 0.301166 -0.342982
350 1 12.597 14.2766 0 -0.46897 1.20926 0.84207
351 1 12.597 13.4368 0.839798 -2.27048 0.307715 -1.20192
352 1 11.7572 14.2766 0.839798 -1.73298 -0.387131 0.511428
353 1 13.4368 13.4368 0 -1.14804 1.08201 -1.57389
354 1 14.2766 14.2766 0 -1.56966 -0.0802797 0.692044
355 1 14.2766 13.4368 0.839798 0.594321 -2.92146 -2.10175
356 1 13.4368 14.2766 0.839798 -0.0556448 -0.0156422 -0.513804
357 1 15.1164 13.4368 0 0.367823 0.787803 -0.769697
358 1 15.9562 14.2766 0 1.46716 -0.270248 0.428377
359 1 15.9562 13.4368 0.839798 0.444724 0.0522659 0.394162
360 1 15.1164 14.2766 0.839798 -0.18568 0.768594 -1.72697
361 1 0 15.1164 0 -0.19757 -0.483497 0.938741
362 1 0.839798 15.9562 0 -0.449445 -0.850017 -0.91638
363 1 0.839798 15.1164 0.839798 -0.115014 -1.63318 -0.16881
364 1 0 15.9562 0.839798 -0.307829 -0.958596 0.651181
365 1 1.6796 15.1164 0 1.36084 1.19331 -0.106072
366 1 2.51939 15.9562 0 0.89334 -0.601483 0.549258
367 1 2.51939 15.1164 0.839798 0.899795 -1.91186 -0.870739
368 1 1.6796 15.9562 0.839798 0.73264 0.622934 1.74377
369 1 3.35919 15.1164 0 -1.50345 0.300875 3.88608
370 1 4.19899 15.9562 0 0.21431 0.697166 1.32575
371 1 4.19899 15.1164 0.839798 -0.165132 -0.791628 0.735902
372 1 3.35919 15.9562 0.839798 0.429195 0.649405 0.604439
373 1 5.03879 15.1164 0 0.381511 1.24241 -0.632237
374 1 5.87859 15.9562 0 -0.82184 -1.76415 0.128584
375 1 5.87859 15.1164 0.839798 1.11814 1.81149 0.243288
376 1 5.03879 15.9562 0.839798 0.448324 0.591135 0.790973
377 1 6.71838 15.1164 0 1.0244 -0.901702 -0.0726731
378 1 7.55818 15.9562 0 -0.535664 -0.714134 2.65463
379 1 7.55818 15.1164 0.839798 1.19344 0.196712 -1.04117
380 1 6.71838 15.9562 0.839798 -0.581669 0.198778 0.107647
381 1 8.39798 15.1164 0 -0.340556 -1.49819 0.629616
382 1 9.23778 15.9562 0 0.66841 -0.995604 1.47326
383 1 9.23778 15.1164 0.839798 -0.268786 -1.03132 0.263864
384 1 8.39798 15.9562 0.839798 -1.23474 0.189038 -3.07404
385 1 10.0776 15.1164 0 0.796729 -0.052763 -0.246548
386 1 10.9174 15.9562 0 1.98354 1.03746 0.344992
387 1 10.9174 15.1164 0.839798 -1.10822 1.08363 -1.09165
388 1 10.0776 15.9562 0.839798 -0.72441 -0.834607 -0.515127
389 1 11.7572 15.1164 0 1.5499 1.1402 0.985779
390 1 12.597 15.9562 0 0.590649 -0.177203 -0.339289
391 1 12.597 15.1164 0.839798 1.29603 1.26187 -0.242293
392 1 11.7572 15.9562 0.839798 1.7071 1.32375 0.914081
393 1 13.4368 15.1164 0 -0.725996 -0.50151 1.76387
394 1 14.2766 15.9562 0 0.269668 -0.431883 -0.0320113
395 1 14.2766 15.1164 0.839798 1.26878 0.175861 0.654373
396 1 13.4368 15.9562 0.839798 1.21353 0.0811737 -0.462377
397 1 15.1164 15.1164 0 -0.371646 0.516179 1.27601
398 1 15.9562 15.9562 0 0.805069 -1.35556 -0.323358
399 1 15.9562 15.1164 0.839798 -0.135621 -0.887156 -0.398641
400 1 15.1164 15.9562 0.839798 -1.28408 0.441489 1.16815
401 1 0 0 1.6796 -2.19324 -0.0260567 0.123962
402 1 0.839798 0.839798 1.6796 -0.567308 -1.78895 1.11575
403 1 0.839798 0 2.51939 -1.25791 1.20299 -0.931646
404 1 0 0.839798 2.51939 0.14773 0.994885 1.16969
405 1 1.6796 0 1.6796 -0.276938 -1.43027 -0.957691
406 1 2.51939 0.839798 1.6796 1.26842 -0.689046 -2.27019
407 1 2.51939 0 2.51939 1.30588 -1.13849 -0.340334
408 1 1.6796 0.839798 2.51939 -1.14577 -0.477723 0.490007
409 1 3.35919 0 1.6796 1.26892 -1.81125 1.29288
410 1 4.19899 0.839798 1.6796 0.0695849 -0.492183 -0.810421
411 1 4.19899 0 2.51939 -2.06355 -0.863902 -1.46171
412 1 3.35919 0.839798 2.51939 -0.349562 1.07796 -0.742548
413 1 5.03879 0 1.6796 0.0659079 0.2797 0.199694
414 1 5.87859 0.839798 1.6796 -0.55777 0.117284 -1.34015
415 1 5.87859 0 2.51939 0.612652 -1.86864 -1.52145
416 1 5.03879 0.839798 2.51939 1.46261 3.59973 -0.556782
417 1 6.71838 0 1.6796 0.824275 -0.761148 -0.485789
418 1 7.55818 0.839798 1.6796 -0.853605 -0.241266 0.200576
419 1 7.55818 0 2.51939 -0.130164 -0.27579 0.485098
420 1 6.71838 0.839798 2.51939 -1.58319 1.09684 1.89751
421 1 8.39798 0 1.6796 -1.41312 -0.757634 0.452412
422 1 9.23778 0.839798 1.6796 -1.66255 -1.55729 -1.36215
423 1 9.23778 0 2.51939 1.80001 -0.503578 0.664669
424 1 8.39798 0.839798 2.51939 1.47537 0.353057 0.00771649
425 1 10.0776 0 1.6796 0.0745896 1.0999 2.39091
426 1 10.9174 0.839798 1.6796 -0.312327 1.53517 -2.93208
427 1 10.9174 0 2.51939 -0.134401 -0.561257 1.48444
428 1 10.0776 0.839798 2.51939 0.116411 0.829289 0.610194
429 1 11.7572 0 1.6796 -0.59179 -1.83383 1.27324
430 1 12.597 0.839798 1.6796 -2.54774 0.0244144 -0.0915617
431 1 12.597 0 2.51939 0.130399 -0.868649 1.10482
432 1 11.7572 0.839798 2.51939 -0.365506 -0.616456 -0.284695
433 1 13.4368 0 1.6796 -2.8817 -0.0620294 0.620407
434 1 14.2766 0.839798 1.6796 -1.32394 -1.65093 -1.23461
435 1 14.2766 0 2.51939 -1.62069 -0.367502 0.535779
436 1 13.4368 0.839798 2.51939 -0.138656 0.76203 -0.975505
437 1 15.1164 0 1.6796 0.68448 1.28288 -0.586383
438 1 15.9562 0.839798 1.6796 0.3209 0.627044 -0.90195
439 1 15.9562 0 2.51939 -1.54396 0.15336 -1.31328
440 1 15.1164 0.839798 2.51939 1.54957 1.53028 -0.369085
441 1 0 1.6796 1.6796 1.26284 0.942137 0.109099
442 1 0.839798 2.51939 1.6796 -1.07069 0.755508 0.445714
443 1 0.839798 1.6796 2.51939 1.00777 1.7342 -1.58846
444 1 0 2.51939 2.51939 0.351003 -0.935777 0.792835
445 1 1.6796 1.6796 1.6796 -2.84184 0.108632 0.498112
446 1 2.51939 2.51939 1.6796 1.18583 1.32926 -1.93986
447 1 2.51939 1.6796 2.51939 0.594095 0.336983 1.38575
448 1 1.6796 2.51939 2.51939 -0.272029 0.285561 0.129781
449 1 3.35919 1.6796 1.6796 -0.343853 -1.09553 1.64255
450 1 4.19899 2.51939 1.6796 -1.14178 -1.33011 -1.71068
451 1 4.19899 1.6796 2.51939 -1.87121 0.577048 1.14813
452 1 3.35919 2.51939 2.51939 0.979876 -2.00205 0.130372
453 1 5.03879 1.6796 1.6796 -1.59302 0.907714 0.54664
454 1 5.87859 2.51939 1.6796 0.169362 -0.293163 -0.969118
455 1 5.87859 1.6796 2.51939 -1.15097 0.364468 -0.589906
456 1 5.03879 2.51939 2.51939 -0.309989 0.422926 -0.814132
457 1 6.71838 1.6796 1.6796 -1.11299 -0.62731 0.679756
458 1 7.55818 2.51939 1.6796 -0.385361 -0.394847 0.69388
459 1 7.55818 1.6796 2.51939 1.60596 -1.89272 -1.53436
460 1 6.71838 2.51939 2.51939 -0.860192 -0.700787 -0.392379
461 1 8.39798 1.6796 1.6796 1.09333 -1.08715 -0.225169
462 1 9.23778 2.51939 1.6796 0.0880766 0.278624 -1.07267
463 1 9.23778 1.6796 2.51939 -1.03996 -1.13825 0.975981
464 1 8.39798 2.51939 2.51939 0.677988 0.379754 -0.299593
465 1 10.0776 1.6796 1.6796 1.11038 0.806049 -0.314181
466 1 10.9174 2.51939 1.6796 1.70511 -2.13764 0.251761
467 1 10.9174 1.6796 2.51939 -1.24008 1.39708 0.883498
468 1 10.0776 2.51939 2.51939 -0.814003 0.0469351 1.42826
469 1 11.7572 1.6796 1.6796 0.0159186 -0.553611 -0.569878
470 1 12.597 2.51939 1.6796 1.34474 0.62292 -0.615786
471 1 12.597 1.6796 2.51939 2.26892 0.0377071 0.726248
472 1 11.7572 2.51939 2.51939 0.0809446 0.859368 0.918315
473 1 13.4368 1.6796 1.6796 -0.82537 -0.786737 0.241806
474 1 14.2766 2.51939 1.6796 0.96111 0.783783 1.02656
475 1 14.2766 1.6796 2.51939 -2.07666 1.35326 -0.30014
476 1 13.4368 2.51939 2.51939 0.854915 0.51359 -0.718697
477 1 15.1164 1.6796 1.6796 -1.21209 1.40486 0.482753
478 1 15.9562 2.51939 1.6796 0.840226 0.318073 0.431614
479 1 15.9562 1.6796 2.51939 1.33888 -0.336835 -0.354219
480 1 15.1164 2.51939 2.51939 -0.647458 -0.424849 -0.259819
481 1 0 3.35919 1.6796 -2.04003 0.483166 1.13103
482 1 0.839798 4.19899 1.6796 1.99208 1.04424 2.92008
483 1 0.839798 3.35919 2.51939 -0.00939458 0.845251 -1.71997
484 1 0 4.19899 2.51939 -1.02846 -0.871314 1.10702
485 1 1.6796 3.35919 1.6796 0.119049 -1.47573 2.37585
486 1 2.51939 4.19899 1.6796 -0.0689836 1.10596 1.06034
487 1 2.51939 3.35919 2.51939 0.0477032 1.67031 -0.526005
488 1 1.6796 4.19899 2.51939 0.510323 -0.0201016 -2.56279
489 1 3.35919 3.35919 1.6796 -0.605863 -0.624106 0.468667
490 1 4.19899 4.19899 1.6796 -1.7768 0.15769 -1.71745
491 1 4.19899 3.35919 2.51939 0.75321 2.55793 -0.27213
492 1 3.35919 4.19899 2.51939 1.73688 -0.555689 0.699535
493 1 5.03879 3.35919 1.6796 2.7669 0.823365 -0.471305
494 1 5.87859 4.19899 1.6796 -1.89601 -1.48638 0.422049
495 1 5.87859 3.35919 2.51939 -0.159897 0.42718 0.299829
496 1 5.03879 4.19899 2.51939 0.345162 -0.862357 -0.832134
497 1 6.71838 3.35919 1.6796 0.793518 -1.07141 1.08381
498 1 7.55818 4.19899 1.6796 0.560319 0.639456 -0.257225
499 1 7.55818 3.35919 2.51939 0.639969 -1.16006 0.000360128
500 1 6.71838 4.19899 2.51939 0.807473 1.00165 1.23228
501 1 8.39798 3.35919 1.6796 0.823547 1.41351 -0.450228
502 1 9.23778 4.19899 1.6796 0.505304 -1.03327 0.343626
503 1 9.23778 3.35919 2.51939 -1.32012 0.744695 0.536476
504 1 8.39798 4.19899 2.51939 -0.119436 -1.92815 0.965259
505 1 10.0776 3.35919 1.6796 0.738199 0.647654 -0.356749
506 1 10.9174 4.19899 1.6796 -0.392687 -0.0856926 -1.04269
507 1 10.9174 3.35919 2.51939 -0.219144 -0.145569 0.51056
508 1 10.0776 4.19899 2.51939 -0.363668 -1.4835 1.10617
509 1 11.7572 3.35919 1.6796 -0.244579 1.37613 -0.845332
510 1 12.597 4.19899 1.6796 0.294429 1.1197 0.384878
511 1 12.597 3.35919 2.51939 1.01068 0.53771 -0.55307
512 1 11.7572 4.19899 2.51939 -1.48623 -0.814092 -0.185347
513 1 13.4368 3.35919 1.6796 -0.153769 -1.40216 -2.32992
514 1 14.2766 4.19899 1.6796 -2.35046 0.318004 -0.796225
515 1 14.2766 3.35919 2.51939 0.112632 -0.198443 -0.263923
516 1 13.4368 4.19899 2.51939 -1.81409 0.479689 1.40821
517 1 15.1164 3.35919 1.6796 2.05453 0.837808 -1.30357
518 1 15.9562 4.19899 1.6796 1.02229 1.58636 1.67582
519 1 15.9562 3.35919 2.51939 -0.507192 0.218286 -0.342556
520 1 15.1164 4.19899 2.51939 0.581662 -0.581957 -0.257799
521 1 0 5.03879 1.6796 0.453508 -0.0384332 0.979076
522 1 0.839798 5.87859 1.6796 -0.555124 0.87124 1.48997
523 1 0.839798 5.03879 2.51939 0.332762 -0.133712 0.136329
524 1 0 5.87859 2.51939 -0.922012 -0.0140106 0.792437
525 1 1.6796 5.03879 1.6796 0.508799 0.0654508 0.385625
526 1 2.51939 5.87859 1.6796 -0.284542 -0.615017 -0.592528
527 1 2.51939 5.03879 2.51939 -0.280255 -0.946412 0.799838
528 1 1.6796 5.87859 2.51939 0.43305 0.00954697 1.78846
529 1 3.35919 5.03879 1.6796 1.38306 0.923228 0.544936
530 1 4.19899 5.87859 1.6796 -0.846885 0.667857 0.778671
531 1 4.19899 5.03879 2.51939 0.106878 -1.27991 -0.224932
532 1 3.35919 5.87859 2.51939 -0.0323765 -1.49742 0.515834
533 1 5.03879 5.03879 1.6796 0.829215 -2.36696 -0.722595
534 1 5.87859 5.87859 1.6796 -0.0668088 -1.35089 1.79377
535 1 5.87859 5.03879 2.51939 -0.232293 -2.06477 0.0637005
536 1 5.03879 5.87859 2.51939 -0.0894088 0.314318 1.64143
537 1 6.71838 5.03879 1.6796 -0.469567 0.369362 -0.512991
538 1 7.55818 5.87859 1.6796 -0.25728 -0.368991 -0.080518
539 1 7.55818 5.03879 2.51939 0.694236 1.17247 -1.5554
540 1 6.71838 5.87859 2.51939 0.707433 -0.88742 2.03877
541 1 8.39798 5.03879 1.6796 0.0701946 -0.837548 -1.25479
542 1 9.23778 5.87859 1.6796 -0.500153 1.75029 0.36628
543 1 9.23778 5.03879 2.51939 0.118893 0.404734 -0.907162
544 1 8.39798 5.87859 2.51939 0.432774 -1.53669 -0.383889
545 1 10.0776 5.03879 1.6796 0.598083 -0.701778 1.599
546 1 10.9174 5.87859 1.6796 -1.58736 -0.389582 -0.915428