LAMMPS data file via write_data, version 7 Feb 2024, timestep = 0, units = metal

4 atoms
1 atom types

0 4.09 xlo xhi
0 4.09 ylo yhi
0 4.09 zlo zhi

Masses

1 107.8681

Pair Coeffs # lj/cut

1 0.341 2.648

Atoms # atomic

1 1 0 0 0 0 0 0
2 1 2.045 2.045 0 0 0 0
3 1 2.045 0 2.045 0 0 0
4 1 0 2.045 2.045 0 0 0

Velocities

1 0 0 0
2 0 0 0
3 0 0 0
4 0 0 0
