ITEM: TIMESTEP
0
ITEM: NUMBER OF ATOMS
864
ITEM: BOX BOUNDS pp pp pp
0.0000000000000000e+00 3.2219999999999999e+01
0.0000000000000000e+00 3.2219999999999999e+01
0.0000000000000000e+00 3.2219999999999999e+01
ITEM: ATOMS id type vx vy vz
1 1 -0.0385493 -0.149322 -0.430727
145 1 0.14222 -0.176641 0.408215
25 1 -0.140791 -0.00668662 0.310141
169 1 0.161894 -0.0990911 0.0540514
5 1 -0.415524 0.158395 -0.146218
149 1 -0.311908 0.0529223 -0.24139
29 1 0.0972604 0.19758 -0.074761
173 1 0.2893 -0.0779049 -0.159285
3 2 -0.0320333 -0.000672758 0.263233
27 2 0.457607 0.464076 -0.411017
4 2 0.394856 0.366307 0.24317
148 2 0.205083 -0.430971 0.275583
2 1 -0.198875 -0.403842 -0.00563589
9 1 -0.0460684 0.216709 -0.311428
153 1 0.100526 0.129662 -0.027993
33 1 0.237105 0.113202 -0.15537
177 1 -0.316385 0.145277 0.0592472
7 2 0.103716 0.322368 0.0546315
31 2 0.369424 -0.22999 0.0802911
11 2 -0.0481229 -0.28778 -0.274003
35 2 -0.250139 -0.174429 0.443716
8 2 -0.312319 -0.280133 0.394938
152 2 -0.297722 -0.0838786 -0.413097
6 1 0.334556 0.104796 0.375124
13 1 0.144691 -0.29574 -0.0302459
157 1 -0.321269 -0.400612 0.215711
37 1 -0.345088 -0.113163 0.181565
181 1 0.29149 0.392859 0.0333518
15 2 -0.458598 0.26685 0.406716
39 2 0.40039 0.140429 0.170261
12 2 0.371456 0.262405 -0.271107
156 2 -0.482634 0.0539365 0.0174713
10 1 -0.347622 -0.169022 -0.0495118
14 1 0.0650383 0.167012 0.214239
17 1 -0.0360585 0.0578633 0.376956
161 1 0.12782 -0.231078 0.14241
41 1 0.302771 0.321573 0.18549
185 1 0.168836 -0.421632 -0.310744
19 2 0.293407 -0.257238 -0.30078
43 2 -0.0824737 0.133571 0.269124
16 2 0.453155 -0.341129 0.00270598
160 2 -0.129931 0.416213 -0.223909
20 2 0.380791 0.459356 0.0459934
164 2 -0.239369 0.103114 -0.196616
18 1 0.00374013 -0.198511 -0.233714
21 1 0.430387 0.332918 0.31837
165 1 0.366035 0.0474472 -0.0856415
45 1 0.228935 0.183435 -0.296789
189 1 -0.263861 0.172405 -0.440767
23 2 0.0297557 0.258177 -0.192195
47 2 -0.316746 0.301809 -0.368255
24 2 0.0086141 -0.341126 0.058494
168 2 0.178249 0.382445 0.387929
22 1 -0.17131 0.231072 0.0276826
49 1 -0.33559 -0.0245596 0.371794
193 1 0.225524 -0.425789 -0.171638
53 1 0.121199 0.150394 0.102535
197 1 0.115765 0.121396 0.182754
51 2 0.470592 -0.478733 0.237429
28 2 0.140549 0.272707 -0.173468
172 2 0.205529 0.327842 -0.221549
52 2 0.325127 0.29255 -0.242592
196 2 0.443322 -0.268503 -0.249821
26 1 -0.0853589 0.150304 0.353915
50 1 0.416404 0.201429 -0.0961344
57 1 -0.274738 -0.0655037 -0.0105513
201 1 -0.340995 0.419682 -0.287514
55 2 -0.216967 -0.224603 0.243526
59 2 0.376829 0.2088 -0.452336
32 2 0.093858 -0.0185369 -0.0469554
176 2 0.212855 0.415955 0.251262
56 2 0.351059 -0.303607 0.00769648
200 2 0.423519 -0.478298 -0.135176
30 1 0.284591 -0.343745 -0.321823
54 1 0.0579986 -0.272091 0.382671
61 1 0.311202 0.22234 0.381033
205 1 0.140452 0.250005 0.0463376
63 2 0.146455 -0.43137 0.297628
36 2 0.316984 -0.0541183 -0.119349
180 2 0.271466 0.138972 -0.285258
60 2 0.0209419 0.168563 0.0496188
204 2 0.113209 0.292363 0.464051
34 1 0.150098 0.167705 0.329972
58 1 0.352469 -0.166596 -0.0368303
38 1 -0.290014 0.211552 -0.122489
62 1 -0.397002 0.366002 -0.238322
65 1 0.406164 0.0324963 0.341609
209 1 -0.393813 -0.0993188 -0.227682
67 2 -0.0439312 -0.0140566 0.270091
40 2 -0.411844 -0.288984 -0.316665
184 2 -0.398207 0.113223 -0.453578
64 2 0.00172628 0.21541 0.0937135
208 2 0.360284 -0.0315678 0.124377
44 2 -0.304794 0.258109 -0.37453
188 2 0.416428 -0.444735 -0.346636
68 2 -0.00255415 0.37336 -0.426361
212 2 -0.469319 -0.153185 -0.122273
42 1 0.386507 0.248816 -0.42988
66 1 -0.261904 0.27337 0.119401
69 1 0.194375 -0.142888 -0.408721
213 1 0.345327 0.329084 -0.317279
71 2 -0.482368 -0.271311 -0.326703
48 2 0.320894 0.284804 0.31507
192 2 -0.259726 0.1978 0.199857
72 2 -0.00922656 -0.256254 -0.103674
216 2 -0.156088 0.127628 0.372142
46 1 -0.204902 0.215732 0.118489
70 1 -0.410947 -0.0332224 0.129113
289 1 0.304041 0.409783 -0.0276555
313 1 -0.391088 -0.38854 0.153473
293 1 0.35754 -0.02904 0.406055
317 1 -0.0745815 -0.403958 -0.18209
147 2 0.00747459 -0.266361 0.193367
291 2 -0.155644 -0.115005 0.364301
171 2 -0.442518 0.395095 -0.421509
315 2 0.299304 -0.166694 -0.293784
292 2 -0.30182 0.259209 -0.149401
146 1 -0.353073 0.391191 0.356927
290 1 -0.103249 -0.0813239 -0.0136406
297 1 -0.150291 -0.137894 0.204026
321 1 -0.162518 -0.0133489 0.00938492
151 2 0.343024 0.195346 0.291964
295 2 0.468107 0.0391015 -0.332457
175 2 0.446866 -0.304508 0.26058
319 2 0.198022 0.103916 -0.169059
155 2 0.0593927 0.401651 0.165509
299 2 0.0237636 -0.474451 0.112547
179 2 0.0364097 -0.38298 0.302987
323 2 -0.0832729 0.160019 -0.304798
296 2 0.104193 -0.324559 -0.276963
150 1 -0.240291 0.142395 0.367034
294 1 -0.14422 -0.0225228 0.0398454
301 1 0.134923 0.373826 0.0852567
325 1 -0.0820656 -0.335919 0.0386233
159 2 -0.302899 0.384894 0.202303
303 2 -0.0799597 0.088576 -0.35748
183 2 -0.471314 -0.037908 0.271493
327 2 -0.293745 0.427357 -0.374969
300 2 -0.32624 0.313433 -0.149754
154 1 0.182964 0.398404 0.151752
298 1 0.309749 -0.27566 -0.223747
158 1 -0.100371 0.429268 0.413432
302 1 0.0846895 -0.142798 0.217924
305 1 -0.418427 0.104244 -0.0386174
329 1 -0.169386 -0.235434 -0.392787
163 2 0.0786734 -0.47567 -0.18331
307 2 -0.0605353 -0.295751 0.351843
187 2 0.419536 -0.123212 -0.103753
331 2 0.35248 -0.456964 -0.149455
304 2 -0.0923799 -0.0511339 0.0504624
308 2 0.245374 -0.0283552 0.284199
162 1 -0.056071 -0.387888 -0.409748
306 1 0.206139 -0.0815458 -0.198243
309 1 -0.302881 0.212913 -0.296132
333 1 -0.341947 0.383356 -0.162094
167 2 0.130267 -0.459691 0.162372
311 2 -0.256852 0.429954 0.0114878
191 2 0.293367 0.0409259 -0.430809
335 2 0.0812956 0.335889 0.432028
312 2 -0.162242 -0.453469 -0.0559907
166 1 -0.0572292 -0.355025 -0.242955
310 1 0.397495 -0.322313 0.0470197
337 1 -0.305735 0.116192 -0.427478
341 1 -0.0147923 0.302623 -0.11747
195 2 0.290158 -0.0726706 -0.459601
339 2 0.165706 0.110999 -0.340681
316 2 0.41266 -0.3248 -0.47942
340 2 0.196416 0.0292342 0.138278
170 1 0.267382 0.249671 -0.249898
314 1 -0.213655 0.230174 -0.00285959
194 1 -0.0635883 0.00990516 -0.0143407
338 1 0.296021 0.331649 0.248957
345 1 -0.208815 0.0319819 -0.327783
199 2 0.412858 0.118123 0.188256
343 2 -0.440269 -0.254203 -0.238582
203 2 0.132193 0.187506 0.228555
347 2 0.325056 0.061319 0.0840801
320 2 0.276566 0.289076 0.010898
344 2 -0.17676 -0.28242 0.418102
174 1 -0.323523 -0.164486 -0.0399915
318 1 0.148101 0.293979 -0.0528172
198 1 -0.132712 0.17213 0.254038
342 1 -0.0199272 -0.0295752 0.273047
349 1 -0.368298 -0.240529 -0.0529536
207 2 -0.464792 -0.00741637 0.359528
351 2 0.3893 0.242102 -0.246122
324 2 0.351514 -0.350129 -0.323163
348 2 -0.0952204 0.274787 0.187856
178 1 -0.156921 0.110426 0.164699
322 1 0.378391 0.324063 0.385566
202 1 -0.399658 0.04099 0.402358
346 1 -0.323743 -0.317653 0.377758
182 1 0.267275 0.224827 -0.359768
326 1 -0.248316 -0.0169522 -0.282019
206 1 -0.00339236 -0.424683 -0.189475
350 1 -0.00136146 0.0295346 0.195863
353 1 -0.315771 -0.165005 0.102134
211 2 -0.107535 -0.0175579 0.0656298
355 2 0.456698 -0.398704 0.398864
328 2 -0.425336 -0.176529 -0.247483
352 2 0.0785535 0.394138 -0.165299
332 2 0.295002 -0.357489 -0.0170116
356 2 -0.0587287 0.267138 0.448729
186 1 -0.320169 0.369263 -0.378276
330 1 0.142058 -0.242055 -0.00505803
210 1 -0.345185 0.0213855 -0.276766
354 1 -0.357525 0.00876448 0.312635
357 1 0.0620606 -0.246987 0.414743
215 2 0.114166 0.0363791 0.0560512
359 2 -0.270313 0.096435 0.0267151
336 2 -0.306351 0.038964 0.241137
360 2 -0.27575 0.0458987 0.473397
190 1 -0.324509 0.0972694 -0.273019
334 1 -0.378127 0.297266 0.238775
214 1 -0.423674 -0.345907 -0.31787
358 1 -0.345024 0.0696736 0.343191
433 1 0.370342 -0.24253 -0.0109643
577 1 0.238733 -0.00197965 -0.34623
457 1 -0.0213693 -0.336891 -0.354958
601 1 -0.438215 -0.113503 -0.213911
437 1 0.0100701 -0.165585 0.100566
581 1 0.376669 -0.249358 -0.423887
461 1 -0.102458 -0.0804675 0.199803
605 1 0.182 0.14677 0.336604
435 2 -0.297314 0.038485 -0.118206
459 2 0.294253 -0.454347 -0.393867
436 2 0.468095 -0.152654 0.144738
580 2 -0.155363 -0.192889 -0.268849
434 1 0.0307063 0.125552 0.018198
441 1 0.173528 -0.447283 0.195258
585 1 0.393702 -0.258302 -0.0856252
465 1 0.00810096 0.417857 0.0656828
609 1 -0.395181 -0.0563031 0.407576
439 2 -0.377431 0.324109 0.479876
463 2 0.370891 0.389275 -0.193623
443 2 0.048937 -0.367662 0.127067
467 2 -0.083839 0.25945 0.0434785
440 2 0.333449 -0.196809 0.176099
584 2 -0.134254 -0.132137 -0.141173
438 1 0.311538 -0.334181 -0.00194503
445 1 0.000975943 0.317298 0.125702
589 1 -0.260579 0.376854 -0.426979
469 1 -0.404918 0.253834 -0.288557
613 1 0.0670491 0.282578 -0.231671
447 2 -0.0252674 0.277222 -0.225677
471 2 0.0273934 -0.0306419 0.304466
444 2 0.158825 -0.186516 0.142307
588 2 0.12031 0.428497 -0.44461
442 1 -0.0324825 -0.108136 -0.414674
446 1 -0.290756 0.155778 0.18976
449 1 0.26493 -0.190366 0.17064
593 1 0.286058 0.387452 0.432652
473 1 -0.42122 0.137879 -0.198806
617 1 0.0994681 0.078571 0.0978171
451 2 0.257593 -0.398302 0.419673
475 2 -0.424635 0.0647924 -0.178957
448 2 -0.409577 0.322799 -0.394685
592 2 0.00675222 0.0899242 0.190891
452 2 -0.0216489 -0.431024 0.336864
596 2 -0.289778 -0.190673 0.44519
450 1 0.198843 -0.398159 -0.202425
453 1 -0.315402 -0.177333 0.309101
597 1 0.358191 0.273133 -0.323016
477 1 -0.447266 0.205664 0.186065
621 1 0.191984 -0.44754 0.306379
455 2 0.225914 -0.24778 0.0431503
479 2 -0.115042 -0.253657 0.283331
456 2 -0.297809 0.375941 -0.309417
600 2 -0.262247 0.125929 -0.3045
454 1 -0.44356 -0.436153 0.251745
481 1 -0.206736 0.417701 0.0949096
625 1 0.148587 -0.398451 0.196602
485 1 -0.198998 0.188473 0.180356
629 1 0.390477 -0.390128 0.0587423
483 2 -0.386326 -0.160662 0.139596
460 2 0.213283 -0.0845596 -0.323016
604 2 0.425645 -0.316609 -0.282647
484 2 0.450857 0.444183 -0.216434
628 2 0.400773 -0.152928 0.349328
458 1 -0.121334 -0.0355927 0.174724
482 1 -0.326855 -0.342458 0.0365627
489 1 0.0730732 -0.394549 0.203431
633 1 0.072719 -0.142268 0.25057
487 2 -0.187577 -0.38806 0.479312
491 2 0.159066 0.0247816 0.286503
464 2 0.211034 -0.387187 -0.226489
608 2 -0.408664 0.276771 -0.114655
488 2 -0.0365062 -0.194541 -0.164037
632 2 0.359596 -0.0754382 0.130557
462 1 0.0309199 0.170863 0.237633
486 1 0.235194 -0.0990672 -0.429747
493 1 -0.279527 0.103159 0.333375
637 1 -0.0623995 -0.395405 -0.014681
495 2 0.464683 0.183053 0.368211
468 2 0.351842 0.350281 0.0607983
612 2 -0.313357 -0.425152 0.0239068
492 2 0.382977 -0.288531 -0.394959
636 2 -0.382573 0.434897 0.401496
466 1 -0.0754473 0.111933 -0.204986
490 1 -0.125003 0.342845 -0.344748
470 1 -0.085847 -0.0764662 0.0909645
494 1 -0.337641 0.0726589 -0.00177733
497 1 -0.364466 0.343201 0.311663
641 1 0.115631 -0.370002 -0.24899
499 2 -0.0228095 0.250112 -0.191354
472 2 -0.241367 0.16641 0.394627
616 2 -0.0329276 0.349251 0.0546668
496 2 -0.206209 -0.135115 -0.192058
640 2 -0.26399 -0.332405 -0.441332
476 2 0.04153 0.116207 -0.275378
620 2 0.222994 -0.304843 0.394561
500 2 0.0307687 -0.0207555 0.156895
644 2 0.134561 -0.37926 0.339522
474 1 0.385354 0.361678 -0.240654
498 1 0.296309 -0.151976 0.178674
501 1 0.131126 0.379071 -0.391395
645 1 -0.352051 -0.159331 -0.243442
503 2 0.00199836 -0.0184392 -0.326357
480 2 -0.132145 -0.260297 0.198469
624 2 0.0906633 0.122558 -0.251473
504 2 -0.108995 0.44716 -0.179033
648 2 -0.136441 -0.366098 0.458315
478 1 0.416482 -0.270066 -0.151496
502 1 0.119772 0.105547 -0.296482
721 1 -0.0764577 -0.0304847 0.0549078
745 1 -0.189904 -0.312591 0.367449
725 1 0.225977 0.0884221 -0.0712353
749 1 0.13547 -0.181312 -0.103822
579 2 0.213344 -0.0159149 -0.199406
723 2 0.0710236 -0.228686 -0.114722
603 2 0.0153405 0.234595 0.478553
747 2 -0.465895 -0.286814 -0.371268
724 2 -0.417492 -0.0526829 -0.0282009
578 1 -0.0358654 -0.242053 0.0329607
722 1 0.226164 -0.303368 0.277847
729 1 -0.252191 0.43458 0.175608
753 1 -0.0735439 0.194574 -0.0885325
583 2 0.307702 -0.324246 0.180025
727 2 -0.271125 -0.0804362 -0.236879
607 2 -0.0363659 0.240873 0.260889
751 2 -0.0381728 -0.326545 -0.0145611
587 2 0.107481 0.146215 0.331275
731 2 -0.456951 0.0826862 -0.331543
611 2 0.144238 -0.199877 -0.441565
755 2 -0.277844 0.429262 -0.0952578
728 2 0.0694198 -0.265629 -0.00585397
582 1 0.148159 0.384492 0.314465
726 1 -0.137524 -0.0400819 0.0587347
733 1 -0.395557 -0.166377 0.0979683
757 1 0.146507 0.0838738 -0.293379
591 2 0.210355 -0.272511 -0.320469
735 2 -0.0752825 -0.129489 0.152251
615 2 0.366926 0.0858874 -0.363515
759 2 0.391275 -0.218023 0.288251
732 2 0.330857 0.454084 -0.114836
586 1 -0.389604 -0.276119 0.0374972
730 1 -0.0785326 -0.338023 0.130675
590 1 0.082999 -0.194673 -0.41892
734 1 0.291476 0.155958 -0.330098
737 1 0.222651 0.0388238 0.33311
761 1 -0.228553 -0.21909 -0.440797
595 2 -0.4861 0.451986 0.187407
739 2 -0.401796 0.343211 0.440502
619 2 0.0604231 0.414854 0.0154569
763 2 0.176359 0.345599 0.19824
736 2 -0.457516 0.189031 -0.0955234
740 2 -0.139981 -0.255496 0.137458
594 1 0.313833 0.130318 0.347554
738 1 0.101142 -0.150203 -0.168391
741 1 0.0836092 0.312384 -0.0367169
765 1 -0.330971 -0.386559 -0.225774
599 2 0.401148 0.382832 0.161156
743 2 0.329766 0.390157 0.222124
623 2 -0.0122052 -0.329055 0.098869
767 2 -0.305905 -0.149401 0.0237902
744 2 0.430444 -0.407564 -0.458782
598 1 -0.0908532 -0.0172009 -0.0306016
742 1 -0.0146316 0.344648 -0.187601
769 1 -0.188958 -0.355008 0.0497292
773 1 -0.102328 0.34296 -0.200493
627 2 0.328679 0.389482 0.403527
771 2 -0.334694 -0.463884 -0.134194
748 2 -0.386723 -0.104369 0.321827
772 2 0.157833 0.456743 0.356411
602 1 0.326513 -0.362023 0.0136418
746 1 0.16622 -0.0743684 -0.10356
626 1 -0.259278 0.0810122 0.357034
770 1 0.0325115 0.331518 -0.171362
777 1 -0.184338 0.187558 -0.130807
631 2 0.073516 0.324242 -0.170978
775 2 -0.0315155 0.0499351 0.0579698
635 2 0.129481 -0.202484 -0.0313463
779 2 -0.0148441 -0.460984 -0.426418
752 2 0.404539 -0.310211 -0.434587
776 2 -0.0681006 0.409913 -0.368758
606 1 -0.0827943 -0.174477 -0.44162
750 1 -0.329075 -0.426791 -0.162834
630 1 -0.392346 -0.261554 0.214477
774 1 -0.429248 -0.0800744 -0.283088
781 1 -0.0541845 0.299634 0.16043
639 2 0.0459706 -0.23466 0.410993
783 2 -0.449234 -0.00238226 0.371371
756 2 -0.384924 0.325562 -0.0963569
780 2 -0.138682 0.425044 0.161875
610 1 -0.393653 -0.0781245 -0.304884
754 1 -0.401826 -0.0627522 0.145417
634 1 -0.193852 -0.1856 -0.387227
778 1 0.372773 -0.139529 0.198132
614 1 -0.289947 -0.424565 0.0115271
758 1 -0.129784 -0.250769 -0.209886
638 1 0.31179 0.348119 -0.333642
782 1 0.237065 0.326166 0.283671
785 1 -0.446649 -0.0584903 -0.0136341
643 2 0.305352 -0.406653 0.42599
787 2 -0.00676921 -0.292543 0.434284
760 2 -0.154611 -0.0547634 -0.387298
784 2 -0.12952 -0.360541 -0.357353
764 2 -0.0458092 0.145818 0.386628
788 2 0.357743 -0.450768 0.156448
618 1 -0.258808 0.0142937 0.180955
762 1 -0.341211 0.344696 -0.257598
642 1 -0.307684 0.144001 -0.102206
786 1 0.15728 0.341359 0.378981
789 1 -0.183229 0.213406 0.0197232
647 2 0.316038 0.388581 -0.313821
791 2 0.400274 0.113481 0.0510896
768 2 -0.110522 -0.218472 0.435966
792 2 0.160331 0.130348 -0.0551956
622 1 0.354986 -0.411273 0.072162
766 1 0.101857 0.345759 -0.117054
646 1 -0.187829 0.000759781 -0.391946
790 1 0.370192 -0.098519 -0.0795578
73 1 -0.405375 -0.327314 0.196299
217 1 0.274904 -0.0705241 -0.190427
97 1 0.40308 -0.395304 -0.0923024
241 1 0.172985 0.177754 -0.0532341
77 1 0.0335212 -0.42347 -0.186228
221 1 -0.224086 0.397006 -0.295938
101 1 -0.0688904 0.412997 -0.0767747
245 1 -0.186687 -0.309048 -0.361743
75 2 0.136121 -0.122256 -0.374055
99 2 -0.240014 -0.163398 0.301356
76 2 0.0629479 -0.410737 0.0321789
220 2 -0.344162 -0.0126067 -0.355799
74 1 -0.265009 0.373414 0.26447
81 1 -0.104997 -0.197742 0.291713
225 1 0.291556 -0.267612 0.31877
105 1 -0.203289 -0.152131 0.230257
249 1 -0.117148 0.298125 -0.382697
79 2 -0.276469 0.460056 0.267761
103 2 -0.295141 0.0297319 -0.149596
83 2 -0.31933 0.127527 -0.36328
107 2 0.297401 -0.415505 -0.304769
80 2 0.379589 0.446585 -0.22286
224 2 -0.1529 -0.129113 -0.257135
78 1 -0.00405395 -0.0222003 0.142075
85 1 -0.0518266 0.0456583 -0.0191435
229 1 0.426312 0.0992635 -0.436154
109 1 -0.429544 0.26833 -0.387973
253 1 0.309996 0.335597 0.144705
87 2 0.247415 -0.333794 0.23671
111 2 0.0572145 0.322926 -0.177885
84 2 -0.428357 -0.00202556 -0.362858
228 2 0.436986 -0.0381155 -0.331879
82 1 -0.0550568 -0.180982 0.134064
86 1 -0.270511 0.0721955 0.186662
89 1 0.390643 -0.266801 -0.229049
233 1 0.245811 0.199604 0.248316
113 1 -0.176896 0.295692 0.3743
257 1 -0.241485 -0.42768 -0.0503811
91 2 0.155095 -0.384321 -0.111666
115 2 0.279744 -0.128987 -0.0735528
88 2 -0.270808 0.433281 0.167583
232 2 0.470172 0.139572 0.192242
92 2 -0.094731 -0.150876 0.235803
236 2 -0.192812 0.0714742 -0.353241
90 1 0.00317624 0.0733278 -0.280694
93 1 -0.245924 0.297689 0.256467
237 1 -0.149196 -0.34724 0.308662
117 1 -0.315452 -0.124233 0.259436
261 1 0.370254 0.0662485 0.387008
95 2 0.0821219 -0.195038 0.146559
119 2 -0.0654402 -0.0588567 0.0308465
96 2 -0.183508 -0.244975 0.0834602
240 2 0.162243 -0.417215 -0.203342
94 1 -0.285716 -0.220783 0.350997
121 1 -0.0604204 0.0744481 -0.0650707
265 1 -0.317621 -0.248625 0.367653
125 1 0.185585 0.131409 0.0821956
269 1 0.270177 0.250268 0.0334716
123 2 0.0802697 0.397478 0.214039
100 2 0.0126959 0.00766381 0.022817
244 2 0.425114 0.377711 -0.356036
124 2 0.0590952 0.208336 0.403447
268 2 -0.363584 0.422362 0.262323
98 1 0.416011 -0.214279 -0.244456
122 1 0.372759 -0.38936 -0.330556
129 1 -0.352021 0.350319 0.294934
273 1 -0.0759098 0.314655 0.0255222
127 2 0.141786 -0.0765249 0.131078
131 2 -0.236363 -0.316586 0.0951464
104 2 -0.475827 0.0630772 -0.167205
248 2 0.354602 -0.3652 0.172004
128 2 -0.366005 0.106436 -0.114335
272 2 -0.203587 -0.303553 -0.0350693
102 1 -0.258922 -0.128463 0.0614594
126 1 0.415452 0.141512 -0.289796
133 1 0.0932222 -0.3142 -0.0859938
277 1 -0.216016 0.425856 -0.216421
135 2 -0.393281 0.231182 -0.152021
108 2 0.0598996 0.268004 -0.386246
252 2 -0.428691 0.150058 -0.452755
132 2 0.398955 0.0559169 -0.344274
276 2 0.19687 -0.0360814 0.209833
106 1 -0.0491086 -0.360643 0.16142
130 1 0.376263 0.00848004 -0.0364433
110 1 0.0398946 0.33888 0.370268
134 1 -0.157138 0.00720232 -0.239966
137 1 0.0938588 -0.250072 -0.0296433
281 1 0.404129 0.393148 -0.43778
139 2 0.316571 -0.267563 0.165955
112 2 0.347905 -0.451792 0.265948
256 2 0.176855 0.0375307 0.184304
136 2 -0.374555 -0.361136 0.212301
280 2 0.0141304 0.0842155 0.37683
116 2 -0.113324 -0.213918 0.0664745
260 2 -0.180358 -0.175286 0.465696
140 2 0.131907 0.189672 0.0962034
284 2 -0.235929 0.233257 0.115144
114 1 0.14494 0.342431 -0.223156
138 1 -0.197882 0.318541 -0.240536
141 1 0.41688 0.225259 -0.188648
285 1 0.391966 -0.176157 -0.311406
143 2 -0.408245 -0.366806 0.0887374
120 2 0.230125 0.354991 0.399944
264 2 0.408617 -0.0321741 -0.452345
144 2 0.473873 -0.129279 -0.160678
288 2 0.251437 -0.0343658 0.203694
118 1 -0.244169 -0.346665 0.223927
142 1 0.145591 -0.248446 -0.170344
361 1 -0.10874 -0.181892 -0.0971224
385 1 0.39327 -0.418733 -0.343958
365 1 -0.323711 0.219403 -0.230907
389 1 -0.13477 0.15808 -0.117459
219 2 0.0310074 0.145987 0.333025
363 2 0.31071 0.241213 0.19465
243 2 -0.289116 0.355584 -0.208479
387 2 0.381056 0.111222 -0.430797
364 2 -0.150086 0.0538759 -0.0391054
218 1 -0.402975 0.129975 -0.0853785
362 1 -0.279521 0.193617 -0.21232
369 1 -0.252314 0.148863 0.0615954
393 1 -0.0268184 0.254501 0.284006
223 2 -0.1825 0.354294 0.211943
367 2 -0.343886 -0.179405 0.439981
247 2 -0.212197 0.159488 0.373226
391 2 -0.422638 -0.0140851 -0.207595
227 2 0.443579 0.209147 -0.393276
371 2 0.36073 -0.237072 0.250145
251 2 0.462382 -0.0353688 -0.310934
395 2 0.17162 -0.480133 -0.21059
368 2 0.432306 0.134567 -0.299365
222 1 -0.174566 -0.429998 -0.00671316
366 1 -0.221541 -0.253317 0.387331
373 1 -0.232735 0.398717 0.100103
397 1 -0.340146 -0.378003 -0.0187991
231 2 -0.167555 -0.348216 0.11055
375 2 0.218565 0.240068 0.18029
255 2 -0.280827 0.286829 -0.26016
399 2 -0.191084 0.269248 0.344351
372 2 0.414423 0.457346 -0.0975815
226 1 0.242869 0.380954 0.233289
370 1 0.192085 0.353093 -0.0521593
230 1 0.0562653 -0.155984 0.164876
374 1 0.192633 -0.183975 0.340116
377 1 0.184726 -0.136659 -0.315613
401 1 0.357614 0.334513 -0.359386
235 2 0.00145076 0.391267 -0.344938
379 2 0.440194 0.0397661 0.264209
259 2 -0.299492 -0.0335435 -0.395623
403 2 0.155844 -0.28975 0.277218
376 2 0.228588 -0.484136 -0.197666
380 2 0.440146 0.188563 -0.269295
234 1 -0.0604672 0.175292 0.217267
378 1 -0.0774867 0.40107 -0.235098
381 1 0.337286 -0.107208 0.116958
405 1 -0.259284 -0.016563 0.0538635
239 2 0.174591 0.42885 -0.286267
383 2 0.128011 0.0753228 -0.0772751
263 2 -0.232302 -0.324185 0.238769
407 2 -0.137791 0.0228237 0.06362
384 2 -0.433123 -0.317117 -0.172384
238 1 0.270045 -0.199109 0.360325
382 1 0.268601 0.352754 -0.428289
409 1 -0.258735 0.353312 0.0809814
413 1 0.330535 -0.127098 -0.0351612
267 2 -0.0376175 0.35399 -0.0921125
411 2 0.0494392 0.383371 -0.401085
388 2 0.202324 0.295539 0.00517949
412 2 -0.271819 -0.206819 0.177938
242 1 -0.0317366 0.0195335 -0.382
386 1 -0.21386 0.325604 -0.309399
266 1 -0.0306694 0.23058 -0.276138
410 1 -0.222012 -0.18698 0.355505
417 1 -0.299277 -0.357408 -0.403835
271 2 -0.36222 0.267998 -0.475341
415 2 0.431883 -0.259093 0.250649
275 2 -0.177125 0.324403 -0.346983
419 2 -0.432146 -0.247341 -0.269732
392 2 0.0906201 0.358298 0.225065
416 2 0.292313 -0.383251 -0.39625
246 1 -0.368643 0.168855 0.17088
390 1 -0.0954159 0.404763 -0.211215
270 1 -0.0325623 0.322461 0.0423572
414 1 0.364015 -0.209442 0.403789
421 1 -0.125692 0.283894 -0.268699
279 2 -0.132387 -0.485303 0.379344
423 2 -0.28059 0.4087 0.404929
396 2 -0.053657 -0.0500221 0.470071
420 2 -0.364505 0.313861 0.314305
250 1 -0.139261 0.00736046 -0.2411
394 1 -0.179704 0.0680713 0.00206325
274 1 0.400181 -0.367772 0.00554279
418 1 -0.228135 -0.29565 -0.288881
254 1 -0.0546273 -0.0535474 -0.250395
398 1 0.0952441 -0.011655 0.117411
278 1 0.1502 0.118655 0.19872
422 1 -0.370816 -0.0264899 -0.164082
425 1 0.147655 -0.116845 0.352617
283 2 0.174252 -0.458373 0.211036
427 2 -0.086632 0.422332 -0.24794
400 2 0.177721 0.16825 -0.393248
424 2 -0.272815 0.34587 -0.0423738
404 2 -0.0027916 0.22797 -0.310015
428 2 -0.402556 0.0788456 -0.472113
258 1 0.0649719 -0.0633882 0.0928384
402 1 0.0854212 -0.253825 -0.173374
282 1 -0.0677632 -0.141502 -0.159143
426 1 0.161777 -0.287143 -0.0138238
429 1 -0.278164 -0.0434043 0.0560894
287 2 -0.187242 0.438807 -0.206542
431 2 -0.483991 0.313406 0.354168
408 2 -0.320928 0.183441 0.167975
432 2 0.380616 0.403572 -0.229053
262 1 0.426379 0.338869 0.17328
406 1 -0.0177808 -0.293486 -0.265359
286 1 -0.229096 0.400537 -0.334306
430 1 -0.0108764 -0.355409 0.397921
505 1 0.00834163 0.0312614 -0.0287292
649 1 0.0982875 -0.265264 -0.109991
529 1 0.14575 -0.220967 -0.0940077
673 1 0.274673 -0.409033 -0.383954
509 1 0.423407 0.013621 0.396826
653 1 -0.243444 0.322001 0.299946
533 1 0.399512 -0.102707 0.430047
677 1 0.407645 0.113155 -0.0504754
507 2 0.367539 -0.192653 -0.14536
531 2 -0.172899 0.202185 -0.119966
508 2 -0.0212688 0.188467 0.0372219
652 2 0.340867 0.461469 -0.0182456
506 1 0.0941216 -0.264707 0.392079
513 1 0.335935 0.236212 0.431847
657 1 -0.170643 -0.0777194 0.299614
537 1 -0.390998 0.232813 0.0380694
681 1 0.431699 0.227559 0.357187
511 2 0.422414 0.184638 0.0940279
535 2 0.368938 0.24159 -0.183837
515 2 -0.107739 0.398002 0.368865
539 2 0.251672 0.0670783 -0.212797
512 2 -0.250668 -0.418034 0.449657
656 2 0.474563 -0.0728212 -0.106564
510 1 -0.189859 -0.43853 0.170446
517 1 -0.0753836 0.295735 0.208129
661 1 -0.0214989 0.143955 -0.00256903
541 1 0.262996 0.0924144 -0.331872
685 1 -0.0833047 0.109673 -0.0832284
519 2 -0.276458 -0.320444 -0.329028
543 2 -0.0831259 -0.253749 -0.292537
516 2 -0.437957 0.151836 -0.369041
660 2 0.386919 -0.367121 -0.391861
514 1 0.276551 0.136313 0.0709676
518 1 0.29919 0.413116 0.155865
521 1 -0.255287 -0.187899 -0.0274787
665 1 0.110397 0.300663 -0.268898
545 1 -0.292101 -0.287613 0.0747584
689 1 -0.11482 -0.44476 0.0497513
523 2 0.102613 0.0464765 -0.391027
547 2 0.401333 -0.351573 0.396336
520 2 0.439582 0.334106 0.266539
664 2 0.433019 -0.378436 -0.231641
524 2 -0.307272 -0.0547832 0.240825
668 2 0.474049 -0.0675056 -0.170107
522 1 0.178445 -0.232583 -0.33826
525 1 -0.298622 0.0160791 0.0547275
669 1 0.394681 0.24269 0.307339
549 1 -0.287129 -0.0416585 0.150192
693 1 0.0405276 0.342425 -0.327654
527 2 0.143645 0.394002 0.439375
551 2 0.0756585 -0.196256 -0.142068
528 2 0.255953 -0.0733409 -0.189682
672 2 0.277908 -0.234045 0.17533
526 1 -0.147498 -0.169732 0.424737
553 1 0.107274 0.1076 -0.354953
697 1 -0.296262 -0.203374 -0.42302
557 1 0.382083 0.347038 0.100106
701 1 0.387425 -0.273486 -0.0197733
555 2 0.314461 -0.169009 0.209692
532 2 -0.367274 -0.0710267 0.251297
676 2 -0.00574052 -0.307094 0.0507266
556 2 -0.318878 0.0298299 -0.425003
700 2 0.131093 -0.0262776 -0.366645
530 1 -0.320811 0.200804 0.0440863
554 1 0.234177 -0.343437 0.412964
561 1 0.377352 -0.297207 0.131705
705 1 -0.411127 -0.392978 0.00432653
559 2 0.195802 0.277439 -0.426301
563 2 -0.173126 0.238544 -0.428191
536 2 -0.288821 -0.44914 -0.354521
680 2 0.364879 0.275484 0.369086
560 2 -0.088017 0.215461 -0.0138386
704 2 -0.182945 -0.401232 0.211122
534 1 -0.0822155 -0.196666 -0.238181
558 1 -0.327376 -0.22549 0.107999
565 1 -0.316773 -0.172565 -0.207259
709 1 0.425648 -0.436668 -0.436911
567 2 0.32761 -0.27534 0.211066
540 2 -0.0829532 -0.234582 -0.204386
684 2 0.371057 0.300755 0.182577
564 2 -0.437705 -0.415297 0.305894
708 2 0.0178567 0.226631 0.26435
538 1 0.38291 0.0572416 -0.323336
562 1 0.258293 -0.0732906 0.285094
542 1 -0.119683 0.250077 0.371386
566 1 0.132881 -0.261267 -0.281792
569 1 -0.163834 0.0323708 0.00433311
713 1 -0.203266 0.237026 -0.06707
571 2 0.0330495 -0.139853 -0.0452182
544 2 -0.189381 0.0556359 -0.260378
688 2 -0.288749 -0.212138 0.173888
568 2 -0.226193 0.44788 0.392285
712 2 0.0741389 0.219198 0.298462
548 2 0.395936 0.251554 0.0110612
692 2 0.0122151 -0.382669 -0.232856
572 2 -0.451117 0.0679458 -0.0530807
716 2 -0.40542 0.00565111 -0.158399
546 1 0.17019 0.181333 -0.171976
570 1 0.242966 0.241376 0.368215
573 1 0.0794219 -0.0466521 0.420618
717 1 -0.357422 -0.0282092 0.187843
575 2 0.228794 0.0847326 0.414805
552 2 -0.220761 0.427032 -0.0837498
696 2 -0.434191 -0.000601995 -0.470094
576 2 0.211719 -0.414288 -0.0365163
720 2 -0.0878003 0.0120838 0.287312
550 1 0.405153 -0.112863 -0.0827354
574 1 -0.00658576 -0.032313 0.3468
793 1 -0.328489 -0.319913 -0.381603
817 1 0.0653957 -0.0312609 0.302897
797 1 0.193918 0.143314 -0.127446
821 1 -0.364675 0.376723 0.0274949
651 2 -0.313037 0.157663 0.46975
795 2 -0.418791 0.230778 -0.218492
675 2 0.34254 -0.253032 0.215063
819 2 -0.0975764 0.0916831 -0.0485291
796 2 -0.234956 0.254851 -0.335966
650 1 -0.34604 -0.163002 0.0981639
794 1 0.0661711 -0.292291 0.330936
801 1 0.311809 -0.206077 0.228874
825 1 0.409144 -0.401952 -0.151219
655 2 0.172807 0.246794 -0.210345
799 2 0.395693 0.0274746 0.364155
679 2 0.39234 0.384375 0.125957
823 2 0.123612 0.176524 0.224443
659 2 -0.0205368 -0.00493805 -0.285638
803 2 0.199695 0.333306 0.282416
683 2 -0.316928 0.11986 -0.409862
827 2 0.423923 -0.404312 0.363537
800 2 -0.114643 -0.274575 -0.38852
654 1 0.0465234 0.074849 -0.417397
798 1 -0.125258 -0.399185 0.277747
805 1 -0.329232 -0.404799 -0.126164
829 1 0.150699 -0.364842 -0.394091
663 2 0.18136 -0.203718 0.374034
807 2 0.115667 0.268564 0.379773
687 2 -0.195722 0.185229 0.415329
831 2 0.124327 -0.316444 -0.395055
804 2 -0.204859 0.438528 -0.0821692
658 1 0.175559 0.022625 0.171552
802 1 0.0905719 0.342771 0.168074
662 1 0.200779 0.242166 0.363051
806 1 0.255983 0.111604 -0.427854
809 1 0.427477 0.169678 -0.189821
833 1 0.182491 0.419758 0.0999345
667 2 -0.472385 0.233736 0.462742
811 2 0.298757 0.253651 -0.317717
691 2 -0.377006 -0.213851 0.229015
835 2 0.100791 0.188782 -0.431119
808 2 0.11686 0.117944 0.0659251
812 2 -0.0944305 0.0928848 -0.0397531
666 1 0.394782 0.167108 0.0590609
810 1 -0.40105 -0.318573 -0.0172049
813 1 0.228641 -0.333062 0.18553
837 1 -0.172919 -0.23057 -0.172829
671 2 0.0639984 -0.0572381 0.318719
815 2 -0.242181 -0.0454239 -0.115163
695 2 -0.279015 -0.0358864 -0.359096
839 2 -0.105751 0.163475 0.0962807
816 2 -0.314293 0.183715 -0.03253
670 1 -0.437253 0.097233 0.00290733
814 1 -7.75878e-05 0.336487 0.0218469
841 1 0.119933 0.150423 -0.311635
845 1 -0.317179 0.10267 0.0886948
699 2 -0.0442609 0.213429 0.441397
843 2 0.15184 -0.293001 0.422294
820 2 0.125743 0.411764 -0.0062631
844 2 -0.304199 -0.312056 0.28948
674 1 0.23106 -0.442719 -0.212936
818 1 0.262982 -0.13223 -0.316633
698 1 -0.386492 -0.252639 0.269043
842 1 -0.424271 0.265272 -0.380511
849 1 -0.0714765 0.375917 -0.223664
703 2 -0.215915 0.145915 0.0863932
847 2 -0.00185608 -0.391317 -0.426459
707 2 -0.38876 0.263592 0.445279
851 2 -0.27783 -0.293366 0.0661162
824 2 -0.32037 -0.0501889 -0.410565
848 2 0.00323489 -0.385201 0.475148
678 1 -0.0223663 -0.253541 0.16367
822 1 0.0314894 -0.00643185 0.160578
702 1 -0.281297 -0.404212 -0.0107607
846 1 -0.305983 0.367457 0.285349
853 1 0.159031 -0.355205 0.271167
711 2 -0.0925568 -0.14003 -0.126342
855 2 -0.464916 -0.159603 -0.315309
828 2 0.363351 -0.403659 -0.209752
852 2 0.170095 -0.145559 0.199925
682 1 -0.193237 0.403722 0.0288031
826 1 0.430995 -0.0769366 0.161886
706 1 -0.0545534 0.30352 -0.118759
850 1 0.0611211 -0.0833144 0.211388
686 1 0.199815 -0.00149736 -0.217042
830 1 0.174382 -0.272523 0.19749
710 1 -0.00817877 -0.217121 -0.143418
854 1 -0.125449 -0.0623663 0.427674
857 1 -0.227299 -0.424818 0.192193
715 2 -0.328472 0.288918 0.229728
859 2 0.20346 0.16704 0.405876
832 2 0.113969 -0.405715 -0.160614
856 2 0.201274 -0.0410394 -0.446242
836 2 0.0582878 0.0958376 -0.401068
860 2 0.00384656 0.282001 0.294585
690 1 0.293646 0.285199 0.399157
834 1 -0.290992 -0.25797 0.182011
714 1 0.273128 0.215763 -0.257295
858 1 -0.132777 -0.0332439 -0.232215
861 1 0.371815 -0.298256 0.22091