ITEM: TIMESTEP
0
ITEM: NUMBER OF ATOMS
864
ITEM: BOX BOUNDS pp pp pp
0.0000000000000000e+00 3.2219999999999999e+01
0.0000000000000000e+00 3.2219999999999999e+01
0.0000000000000000e+00 3.2219999999999999e+01
ITEM: ATOMS id type vx vy vz
1 1 -0.208665 -0.808274 -2.3315
145 1 0.769829 -0.956149 2.20964
25 1 -0.762096 -0.0361943 1.67878
169 1 0.876324 -0.536375 0.292577
5 1 -2.24921 0.857385 -0.791469
149 1 -1.68834 0.286465 -1.30663
29 1 0.526465 1.06949 -0.404677
173 1 1.56596 -0.421695 -0.862203
3 2 -0.173394 -0.0036416 1.42487
27 2 2.477 2.51202 -2.22481
4 2 2.13733 1.9828 1.31627
148 2 1.1101 -2.33282 1.49171
2 1 -1.0765 -2.18598 -0.0305068
9 1 -0.249366 1.17303 -1.68574
153 1 0.544141 0.701856 -0.151525
33 1 1.28344 0.612756 -0.841008
177 1 -1.71258 0.786375 0.320702
7 2 0.561411 1.74496 0.295718
31 2 1.99967 -1.24492 0.434612
11 2 -0.260487 -1.55774 -1.48316
35 2 -1.35399 -0.944174 2.40181
8 2 -1.69057 -1.51635 2.13778
152 2 -1.61155 -0.45403 -2.23607
6 1 1.81093 0.567256 2.03053
13 1 0.783206 -1.60082 -0.163719
157 1 -1.73901 -2.16849 1.16764
37 1 -1.86794 -0.612548 0.9828
181 1 1.57782 2.12653 0.180531
15 2 -2.48237 1.44444 2.20153
39 2 2.16729 0.760133 0.921614
12 2 2.01067 1.42039 -1.46749
156 2 -2.61247 0.291955 0.0945713
10 1 -1.88166 -0.914907 -0.268005
14 1 0.352049 0.904028 1.15966
17 1 -0.195183 0.313211 2.04044
161 1 0.691885 -1.25081 0.77086
41 1 1.63888 1.74066 1.00405
185 1 0.913899 -2.28227 -1.68204
19 2 1.5882 -1.39242 -1.62811
43 2 -0.446426 0.723012 1.45675
16 2 2.45291 -1.84652 0.0146473
160 2 -0.70331 2.25294 -1.21201
20 2 2.0612 2.48647 0.24896
164 2 -1.29569 0.55815 -1.06427
18 1 0.0202451 -1.07453 -1.26508
21 1 2.32966 1.80207 1.72332
165 1 1.98133 0.256829 -0.463573
45 1 1.23922 0.992922 -1.6065
189 1 -1.42826 0.933218 -2.38585
23 2 0.161066 1.3975 -1.04034
47 2 -1.71453 1.63367 -1.99334
24 2 0.0466277 -1.8465 0.316625
168 2 0.96485 2.07016 2.09984
22 1 -0.927291 1.25078 0.149844
49 1 -1.81653 -0.13294 2.0125
193 1 1.22075 -2.30477 -0.929067
53 1 0.656042 0.814077 0.555017
197 1 0.626632 0.657109 0.989238
51 2 2.54729 -2.59136 1.28519
28 2 0.760783 1.47615 -0.938971
172 2 1.11252 1.77459 -1.19923
52 2 1.7599 1.58356 -1.31314
196 2 2.39968 -1.45339 -1.35227
26 1 -0.462043 0.813587 1.91572
50 1 2.25398 1.09032 -0.520371
57 1 -1.48714 -0.354568 -0.0571135
201 1 -1.84579 2.27172 -1.5563
55 2 -1.17443 -1.21577 1.31819
59 2 2.03976 1.13022 -2.44847
32 2 0.508048 -0.100339 -0.254167
176 2 1.15217 2.25154 1.36007
56 2 1.90027 -1.64341 0.0416606
200 2 2.29248 -2.589 -0.731698
30 1 1.54047 -1.86067 -1.74201
54 1 0.313944 -1.47281 2.07138
61 1 1.68452 1.20351 2.06251
205 1 0.760261 1.35326 0.250823
63 2 0.792755 -2.33498 1.61105
36 2 1.71582 -0.292939 -0.646027
180 2 1.46943 0.752246 -1.54409
60 2 0.113358 0.912421 0.268584
204 2 0.612796 1.58255 2.51189
34 1 0.812471 0.907776 1.78612
58 1 1.9079 -0.901773 -0.19936
38 1 -1.56983 1.14512 -0.663026
62 1 -2.14895 1.98115 -1.29003
65 1 2.19854 0.175901 1.84911
209 1 -2.13169 -0.537608 -1.23243
67 2 -0.237797 -0.0760878 1.46199
40 2 -2.22929 -1.56426 -1.71409
184 2 -2.15547 0.612868 -2.45519
64 2 0.00934427 1.16601 0.507267
208 2 1.9502 -0.170875 0.673247
44 2 -1.64983 1.39713 -2.02731
188 2 2.2541 -2.40733 -1.87632
68 2 -0.0138255 2.02098 -2.30787
212 2 -2.5404 -0.829182 -0.661859
42 1 2.09214 1.34683 -2.32692
66 1 -1.41767 1.47974 0.646312
69 1 1.05214 -0.773443 -2.21239
213 1 1.86924 1.78131 -1.71742
71 2 -2.61103 -1.46859 -1.76843
48 2 1.73698 1.54163 1.70546
192 2 -1.40588 1.07068 1.08182
72 2 -0.0499429 -1.38709 -0.561183
216 2 -0.844894 0.690846 2.01439
46 1 -1.10912 1.16775 0.641372
70 1 -2.22444 -0.179831 0.698879
289 1 1.64576 2.21814 -0.149698
313 1 -2.11694 -2.10315 0.830742
293 1 1.93535 -0.157192 2.19796
317 1 -0.403706 -2.1866 -0.985645
147 2 0.0404596 -1.4418 1.04668
291 2 -0.842495 -0.622517 1.97194
171 2 -2.39533 2.13863 -2.2816
315 2 1.62011 -0.902305 -1.59024
292 2 -1.63373 1.40309 -0.808698
146 1 -1.91117 2.1175 1.93203
290 1 -0.558883 -0.440202 -0.073836
297 1 -0.813518 -0.746414 1.10438
321 1 -0.879701 -0.0722571 0.0508001
151 2 1.85677 1.0574 1.58039
295 2 2.53384 0.211654 -1.79957
175 2 2.41886 -1.64828 1.4105
319 2 1.07189 0.562493 -0.915108
155 2 0.32149 2.17411 0.89589
299 2 0.128631 -2.56818 0.609208
179 2 0.197084 -2.07305 1.64005
323 2 -0.450752 0.866176 -1.64985
296 2 0.563989 -1.75682 -1.49919
150 1 -1.30068 0.770775 1.98673
294 1 -0.780655 -0.121915 0.215681
301 1 0.730329 2.0235 0.46149
325 1 -0.444217 -1.81831 0.209066
159 2 -1.63958 2.08341 1.09505
303 2 -0.432818 0.479458 -1.93502
183 2 -2.5512 -0.205194 1.46958
327 2 -1.59003 2.31326 -2.02969
300 2 -1.76592 1.6966 -0.810611
154 1 0.990377 2.15654 0.821427
298 1 1.67665 -1.49213 -1.21113
158 1 -0.543305 2.32361 2.23789
302 1 0.45842 -0.772956 1.17961
305 1 -2.26492 0.564268 -0.209034
329 1 -0.91688 -1.27439 -2.12614
163 2 0.425855 -2.57478 -0.992248
307 2 -0.327675 -1.60088 1.90451
187 2 2.27093 -0.666941 -0.56161
331 2 1.90796 -2.47352 -0.808992
304 2 -0.500048 -0.276785 0.27315
308 2 1.3282 -0.153485 1.53835
162 1 -0.30351 -2.09962 -2.21794
306 1 1.11582 -0.441403 -1.07308
309 1 -1.63948 1.15249 -1.60295
333 1 -1.85094 2.07508 -0.877408
167 2 0.705127 -2.48828 0.87891
311 2 -1.39033 2.32732 0.0621829
191 2 1.58798 0.22153 -2.33195
335 2 0.440049 1.81815 2.33854
312 2 -0.878209 -2.45461 -0.303074
166 1 -0.309779 -1.92173 -1.3151
310 1 2.15162 -1.74466 0.254515
337 1 -1.65493 0.628939 -2.31391
341 1 -0.0800698 1.63808 -0.635857
195 2 1.57061 -0.393362 -2.4878
339 2 0.896958 0.600829 -1.84409
316 2 2.23371 -1.75812 -2.59508
340 2 1.06319 0.158243 0.748492
170 1 1.44733 1.35146 -1.35268
314 1 -1.1565 1.24592 -0.0154788
194 1 -0.3442 0.0536161 -0.0776252
338 1 1.60235 1.7952 1.34759
345 1 -1.13031 0.173116 -1.77427
199 2 2.23478 0.639391 1.01902
343 2 -2.38315 -1.37599 -1.29143
203 2 0.715552 1.01496 1.23716
347 2 1.75951 0.331916 0.455121
320 2 1.49704 1.56475 0.0589902
344 2 -0.956795 -1.52872 2.26316
174 1 -1.75121 -0.890356 -0.216472
318 1 0.801665 1.59129 -0.285897
198 1 -0.718365 0.931729 1.37509
342 1 -0.107865 -0.160089 1.47799
349 1 -1.99358 -1.30197 -0.286635
207 2 -2.5159 -0.0401444 1.94611
351 2 2.10726 1.31048 -1.33224
324 2 1.90273 -1.89523 -1.74926
348 2 -0.515423 1.48741 1.01686
178 1 -0.849404 0.59773 0.891507
322 1 2.04821 1.75414 2.08705
202 1 -2.16333 0.221877 2.17794
346 1 -1.7524 -1.71944 2.04479
182 1 1.44675 1.21698 -1.94741
326 1 -1.34412 -0.0917612 -1.52656
206 1 -0.0183627 -2.29879 -1.02562
350 1 -0.0073695 0.159869 1.0602
353 1 -1.70925 -0.893165 0.552848
211 2 -0.582083 -0.0950398 0.35525
355 2 2.47208 -2.15816 2.15903
328 2 -2.30232 -0.955543 -1.33961
352 2 0.425206 2.13345 -0.894753
332 2 1.59683 -1.93507 -0.092083
356 2 -0.317895 1.44601 2.42895
186 1 -1.73306 1.9988 -2.04759
330 1 0.768951 -1.31023 -0.0273789
210 1 -1.86847 0.115758 -1.49812
354 1 -1.93527 0.0474417 1.69228
357 1 0.335931 -1.33693 2.24498
215 2 0.617977 0.196918 0.303402
359 2 -1.46319 0.521998 0.144607
336 2 -1.65826 0.21091 1.30526
360 2 -1.49262 0.248447 2.56247
190 1 -1.75655 0.526514 -1.47784
334 1 -2.04678 1.60908 1.29247
214 1 -2.29333 -1.87237 -1.72061
358 1 -1.8676 0.37714 1.85768
433 1 2.00464 -1.3128 -0.0593492
577 1 1.29225 -0.0107157 -1.87412
457 1 -0.115671 -1.82357 -1.92137
601 1 -2.37204 -0.614388 -1.15789
437 1 0.0545091 -0.896305 0.544357
581 1 2.03889 -1.34976 -2.29448
461 1 -0.554602 -0.435566 1.08152
605 1 0.985158 0.794457 1.82202
435 2 -1.60935 0.208317 -0.639845
459 2 1.59278 -2.45936 -2.13198
436 2 2.53377 -0.82631 0.783458
580 2 -0.840972 -1.0441 -1.45526
434 1 0.166212 0.679606 0.0985047
441 1 0.939295 -2.42112 1.05692
585 1 2.13109 -1.39818 -0.463485
465 1 0.0438501 2.26184 0.355537
609 1 -2.13909 -0.304766 2.20619
439 2 -2.04302 1.75439 2.59755
463 2 2.00761 2.10712 -1.04807
443 2 0.264893 -1.99013 0.687807
467 2 -0.453816 1.40439 0.235347
440 2 1.80494 -1.06532 0.953212
584 2 -0.726707 -0.715252 -0.764165
438 1 1.68634 -1.8089 -0.0105284
445 1 0.00528273 1.71752 0.680421
589 1 -1.4105 2.03989 -2.31121
469 1 -2.1918 1.37399 -1.56194
613 1 0.362933 1.52958 -1.25402
447 2 -0.136771 1.50059 -1.22158
471 2 0.148279 -0.165863 1.64806
444 2 0.85971 -1.0096 0.7703
588 2 0.651232 2.31943 -2.40665
442 1 -0.175826 -0.585337 -2.24461
446 1 -1.57385 0.843221 1.02716
449 1 1.43405 -1.03044 0.923665
593 1 1.54842 2.09726 2.34192
473 1 -2.28004 0.74633 -1.07612
617 1 0.538416 0.425301 0.529479
451 2 1.39434 -2.15599 2.27167
475 2 -2.29853 0.350718 -0.968685
448 2 -2.21702 1.74729 -2.13641
592 2 0.0365494 0.486755 1.03328
452 2 -0.117184 -2.33311 1.82343
596 2 -1.56855 -1.0321 2.40979
450 1 1.07632 -2.15521 -1.09572
453 1 -1.70726 -0.959892 1.67315
597 1 1.93887 1.47845 -1.74847
477 1 -2.42103 1.11325 1.00716
621 1 1.0392 -2.42251 1.65841
455 2 1.22286 -1.34122 0.233571
479 2 -0.622718 -1.37303 1.53366
456 2 -1.61202 2.03495 -1.67486
600 2 -1.41953 0.681649 -1.64824
454 1 -2.40097 -2.36087 1.36268
481 1 -1.11905 2.26099 0.513741
625 1 0.804296 -2.1568 1.0642
485 1 -1.07716 1.02019 0.97626
629 1 2.11363 -2.11174 0.317969
483 2 -2.09116 -0.869657 0.755628
460 2 1.15449 -0.457717 -1.74847
604 2 2.30399 -1.71379 -1.52995
484 2 2.44046 2.40434 -1.17155
628 2 2.16936 -0.827792 1.89089
458 1 -0.656776 -0.192661 0.945771
482 1 -1.76925 -1.85371 0.197912
489 1 0.395541 -2.13567 1.10116
633 1 0.393624 -0.770091 1.35632
487 2 -1.01534 -2.10055 2.59449
491 2 0.861016 0.134142 1.55083
464 2 1.14232 -2.09582 -1.22597
608 2 -2.21208 1.49815 -0.620621
488 2 -0.197606 -1.05304 -0.887925
632 2 1.94647 -0.408343 0.7067
462 1 0.167368 0.924873 1.2863
486 1 1.27309 -0.536245 -2.3262
493 1 -1.51306 0.558393 1.80454
637 1 -0.337765 -2.14031 -0.0794676
495 2 2.51531 0.990855 1.99311
468 2 1.9045 1.89605 0.329098
612 2 -1.69619 -2.30132 0.129406
492 2 2.07303 -1.5618 -2.13789
636 2 -2.07085 2.35407 2.17328
466 1 -0.408392 0.605889 -1.10958
490 1 -0.676635 1.8558 -1.8661
470 1 -0.464685 -0.413908 0.492386
494 1 -1.82763 0.393299 -0.0096206
497 1 -1.97284 1.85773 1.68702
641 1 0.625903 -2.0028 -1.34777
499 2 -0.123467 1.35385 -1.03579
472 2 -1.30651 0.900767 2.1361
616 2 -0.178235 1.89048 0.295909
496 2 -1.1162 -0.731368 -1.0396
640 2 -1.42896 -1.79929 -2.38891
476 2 0.2248 0.629025 -1.49061
620 2 1.20705 -1.6501 2.13574
500 2 0.166549 -0.112348 0.849266
644 2 0.728374 -2.05292 1.83782
474 1 2.0859 1.95774 -1.30265
498 1 1.6039 -0.822635 0.96715
501 1 0.709779 2.05189 -2.1186
645 1 -1.90563 -0.862448 -1.31774
503 2 0.010817 -0.0998102 -1.76655
480 2 -0.715293 -1.40898 1.0743
624 2 0.490756 0.663399 -1.36121
504 2 -0.589983 2.42045 -0.969094
648 2 -0.738548 -1.98167 2.48083
478 1 2.25439 -1.46185 -0.820042
502 1 0.64832 0.571321 -1.60484
721 1 -0.413861 -0.165012 0.297213
745 1 -1.02794 -1.69204 1.98898
725 1 1.2232 0.478624 -0.385593
749 1 0.73329 -0.981433 -0.561983
579 2 1.15482 -0.0861465 -1.07937
723 2 0.384447 -1.23786 -0.620982
603 2 0.0830373 1.26985 2.59038
747 2 -2.52187 -1.55251 -2.00965
724 2 -2.25986 -0.28517 -0.15265
578 1 -0.194137 -1.31022 0.178415
722 1 1.22422 -1.64211 1.50397
729 1 -1.3651 2.35236 0.950559
753 1 -0.398089 1.05322 -0.479222
583 2 1.66558 -1.75512 0.974469
727 2 -1.46758 -0.435397 -1.28221
607 2 -0.196847 1.30383 1.41218
751 2 -0.206627 -1.76757 -0.0788183
587 2 0.581788 0.791455 1.79317
731 2 -2.47345 0.447576 -1.79463
611 2 0.780755 -1.08193 -2.39017
755 2 -1.50395 2.32357 -0.515626
728 2 0.375766 -1.43784 -0.0316872
582 1 0.801979 2.08123 1.70218
726 1 -0.744409 -0.216961 0.317928
733 1 -2.14113 -0.900588 0.530297
757 1 0.793034 0.454005 -1.58804
591 2 1.13864 -1.47509 -1.73468
735 2 -0.4075 -0.700916 0.824129
615 2 1.98615 0.464904 -1.96769
759 2 2.11795 -1.18015 1.56029
732 2 1.79091 2.45793 -0.621602
586 1 -2.10891 -1.49462 0.20297
730 1 -0.425093 -1.8297 0.707339
590 1 0.449269 -1.05375 -2.26759
734 1 1.57774 0.844195 -1.7868
737 1 1.2052 0.210151 1.80311
761 1 -1.23714 -1.18592 -2.38601
595 2 -2.63123 2.44658 1.01442
739 2 -2.1749 1.85778 2.38442
619 2 0.327067 2.24559 0.0836674
763 2 0.954621 1.87071 1.07306
736 2 -2.47651 1.02321 -0.517063
740 2 -0.757708 -1.38299 0.744052
594 1 1.69876 0.705402 1.88129
738 1 0.547476 -0.813042 -0.911489
741 1 0.452572 1.69092 -0.198747
765 1 -1.79153 -2.09242 -1.2221
599 2 2.17139 2.07225 0.872332
743 2 1.78501 2.1119 1.20234
623 2 -0.066066 -1.78116 0.535173
767 2 -1.65585 -0.808701 0.128775
744 2 2.32997 -2.20612 -2.48336
598 1 -0.491783 -0.0931074 -0.165645
742 1 -0.0792 1.86556 -1.01547
769 1 -1.02282 -1.92164 0.269181
773 1 -0.553894 1.85642 -1.08526
627 2 1.77912 2.10824 2.18427
771 2 -1.81168 -2.51098 -0.726384
748 2 -2.09331 -0.564943 1.74203
772 2 0.854344 2.47233 1.92923
602 1 1.7674 -1.95961 0.0738426
746 1 0.899739 -0.402552 -0.560564
626 1 -1.40346 0.438515 1.93261
770 1 0.175983 1.79449 -0.927575
777 1 -0.99781 1.01524 -0.708052
631 2 0.397938 1.7551 -0.925492
775 2 -0.170592 0.270296 0.313788
635 2 0.700875 -1.09604 -0.169676
779 2 -0.0803505 -2.49528 -2.30818
752 2 2.18975 -1.67916 -2.3524
776 2 -0.368625 2.21883 -1.99607
606 1 -0.448161 -0.944435 -2.39047
750 1 -1.78127 -2.3102 -0.881413
630 1 -2.12375 -1.41578 1.16095
774 1 -2.3235 -0.433438 -1.53234
781 1 -0.293298 1.6219 0.8684
639 2 0.248836 -1.2702 2.22468
783 2 -2.43168 -0.012895 2.01021
756 2 -2.08357 1.76225 -0.521575
780 2 -0.750677 2.30074 0.87622
610 1 -2.13082 -0.422884 -1.65032
754 1 -2.17506 -0.339675 0.787133
634 1 -1.04931 -1.00465 -2.09604
778 1 2.0178 -0.755264 1.07248
614 1 -1.56947 -2.29815 0.0623956
758 1 -0.702516 -1.3574 -1.1361
638 1 1.6877 1.88435 -1.80599
782 1 1.28322 1.76552 1.5355
785 1 -2.41769 -0.316605 -0.0738009
643 2 1.65286 -2.20119 2.30586
787 2 -0.0366414 -1.58352 2.35076
760 2 -0.836903 -0.296431 -2.09642
784 2 -0.701083 -1.95159 -1.93433
764 2 -0.247963 0.789306 2.0928
788 2 1.93644 -2.43999 0.846846
618 1 -1.40091 0.0773709 0.979502
762 1 -1.84696 1.86582 -1.39436
642 1 -1.66548 0.779472 -0.553233
786 1 0.851347 1.84776 2.0514
789 1 -0.991807 1.15516 0.10676
647 2 1.7107 2.10337 -1.69869
791 2 2.16666 0.614269 0.276546
768 2 -0.598248 -1.18258 2.35986
792 2 0.867862 0.705569 -0.298771
622 1 1.92152 -2.2262 0.390609
766 1 0.551347 1.87158 -0.633606
646 1 -1.01671 0.00411266 -2.12159
790 1 2.00383 -0.533278 -0.430642
73 1 -2.19427 -1.77173 1.06256
217 1 1.48804 -0.381743 -1.03077
97 1 2.18185 -2.13976 -0.499628
241 1 0.936357 0.962173 -0.288153
77 1 0.181449 -2.29222 -1.00804
221 1 -1.21297 2.14897 -1.6019
101 1 -0.3729 2.23553 -0.415577
245 1 -1.01053 -1.67286 -1.95809
75 2 0.736816 -0.661765 -2.02474
99 2 -1.29918 -0.884466 1.63122
76 2 0.340733 -2.2233 0.174183
220 2 -1.86293 -0.0682396 -1.92592
74 1 -1.43448 2.02127 1.43156
81 1 -0.568341 -1.07036 1.57903
225 1 1.57818 -1.44857 1.72548
105 1 -1.10039 -0.823475 1.24637
249 1 -0.634119 1.61374 -2.07152
79 2 -1.49651 2.49026 1.44938
103 2 -1.59758 0.160937 -0.809758
83 2 -1.72852 0.690299 -1.96642
107 2 1.60982 -2.24911 -1.6497
80 2 2.05469 2.41734 -1.20633
224 2 -0.827639 -0.69888 -1.39186
78 1 -0.0219438 -0.120169 0.769044
85 1 -0.280534 0.247146 -0.103623
229 1 2.30761 0.537308 -2.36088
109 1 -2.3251 1.45246 -2.10008
253 1 1.67799 1.81657 0.783278
87 2 1.33925 -1.80681 1.2813
111 2 0.309699 1.74798 -0.962883
84 2 -2.31867 -0.0109642 -1.96413
228 2 2.36538 -0.206317 -1.79644
82 1 -0.29802 -0.979644 0.72568
86 1 -1.46426 0.39079 1.01039
89 1 2.11453 -1.44418 -1.23983
233 1 1.33056 1.08044 1.34412
113 1 -0.957528 1.60056 2.02606
257 1 -1.30714 -2.31501 -0.27271
91 2 0.839521 -2.08031 -0.604441
115 2 1.51424 -0.698202 -0.398138
88 2 -1.46587 2.34533 0.907118
232 2 2.54501 0.755496 1.04059
92 2 -0.512774 -0.816683 1.27639
236 2 -1.04368 0.386886 -1.91207
90 1 0.0171928 0.39692 -1.51938
93 1 -1.33117 1.61137 1.38824
237 1 -0.807591 -1.87959 1.67077
117 1 -1.70752 -0.672466 1.40432
261 1 2.00417 0.3586 2.09486
95 2 0.444522 -1.05573 0.793315
119 2 -0.354225 -0.318588 0.166971
96 2 -0.993317 -1.32604 0.451765
240 2 0.878212 -2.25836 -1.10068
94 1 -1.54657 -1.19508 1.89993
121 1 -0.327053 0.402984 -0.352224
265 1 -1.71927 -1.34579 1.99008
125 1 1.00456 0.711311 0.444921
269 1 1.46245 1.35469 0.18118
123 2 0.434496 2.15153 1.15858
100 2 0.0687222 0.0414838 0.123507
244 2 2.30112 2.04453 -1.9272
124 2 0.319879 1.12771 2.18384
268 2 -1.96806 2.28622 1.41994
98 1 2.25184 -1.15988 -1.32323
122 1 2.01772 -2.10758 -1.78928
129 1 -1.90547 1.89626 1.59646
273 1 -0.410896 1.70321 0.13815
127 2 0.767482 -0.414225 0.709518
131 2 -1.27942 -1.71366 0.515022
104 2 -2.57563 0.341433 -0.90507
248 2 1.91944 -1.97681 0.931048
128 2 -1.98116 0.576134 -0.61889
272 2 -1.10201 -1.64312 -0.189828
102 1 -1.40153 -0.695365 0.332677
126 1 2.24882 0.765996 -1.56865
133 1 0.504607 -1.70075 -0.46548
277 1 -1.16929 2.30514 -1.17147
135 2 -2.12881 1.25138 -0.822884
108 2 0.324233 1.45069 -2.09073
252 2 -2.32048 0.812256 -2.45074
132 2 2.15952 0.302675 -1.86353
276 2 1.06565 -0.195307 1.13582
106 1 -0.265822 -1.95214 0.873761
130 1 2.03669 0.045902 -0.197266
110 1 0.215948 1.83434 2.00424
134 1 -0.850579 0.0389858 -1.29892
137 1 0.508053 -1.35363 -0.160458
281 1 2.18753 2.12809 -2.36968
139 2 1.71358 -1.44831 0.898303
112 2 1.88319 -2.44552 1.43956
256 2 0.957308 0.203152 0.99763
136 2 -2.02745 -1.95481 1.14917
280 2 0.0764871 0.455854 2.03976
116 2 -0.613417 -1.15793 0.359823
260 2 -0.976266 -0.948811 2.52079
140 2 0.714005 1.02668 0.520744
284 2 -1.27707 1.26261 0.623266
114 1 0.784554 1.85356 -1.20793
138 1 -1.07113 1.72425 -1.30201
141 1 2.25655 1.21931 -1.02114
285 1 2.12169 -0.953527 -1.68563
143 2 -2.20981 -1.9855 0.480331
120 2 1.24566 1.92155 2.16488
264 2 2.21182 -0.174157 -2.44852
144 2 2.56505 -0.699778 -0.869742
288 2 1.36101 -0.18602 1.10258
118 1 -1.32168 -1.87648 1.2121
142 1 0.788074 -1.34483 -0.922064
361 1 -0.588602 -0.984571 -0.525719
385 1 2.12875 -2.26658 -1.86183
365 1 -1.75223 1.18762 -1.24989
389 1 -0.729502 0.855681 -0.6358
219 2 0.167842 0.790217 1.80265
363 2 1.68186 1.30567 1.05363
243 2 -1.56497 1.92476 -1.12849
387 2 2.06263 0.602039 -2.33188
364 2 -0.812409 0.291628 -0.211676
218 1 -2.18128 0.70355 -0.462149
362 1 -1.51303 1.04804 -1.14928
369 1 -1.36576 0.805786 0.333413
393 1 -0.145167 1.3776 1.53731
223 2 -0.98786 1.91777 1.14724
367 2 -1.86144 -0.971112 2.3816
247 2 -1.14861 0.863298 2.02025
391 2 -2.28772 -0.0762417 -1.1237
227 2 2.40107 1.1321 -2.12878
371 2 1.95261 -1.28326 1.35402
251 2 2.50285 -0.191449 -1.68307
395 2 0.928967 -2.59893 -1.13991
368 2 2.34005 0.728402 -1.62045
222 1 -0.944916 -2.32756 -0.036338
366 1 -1.19919 -1.37119 2.0966
373 1 -1.25978 2.15823 0.541854
397 1 -1.84119 -2.04611 -0.101759
231 2 -0.906969 -1.88487 0.5984
375 2 1.18308 1.29947 0.975903
255 2 -1.5201 1.55259 -1.40823
399 2 -1.03433 1.45743 1.86395
372 2 2.24325 2.47559 -0.528204
226 1 1.31464 2.06208 1.26278
370 1 1.03974 1.91127 -0.282336
230 1 0.304561 -0.844334 0.892463
374 1 1.04271 -0.995848 1.84103
377 1 0.99991 -0.73973 -1.70839
401 1 1.93575 1.8107 -1.94534
235 2 0.00785286 2.11791 -1.86713
379 2 2.38275 0.215252 1.43015
259 2 -1.62113 -0.181569 -2.14149
403 2 0.843577 -1.5684 1.50057
376 2 1.23734 -2.6206 -1.06995
380 2 2.38249 1.02068 -1.45768
234 1 -0.327306 0.948844 1.17605
378 1 -0.419431 2.17097 -1.27258
381 1 1.82571 -0.580313 0.633088
405 1 -1.40349 -0.0896549 0.291561
239 2 0.94505 2.32134 -1.54955
383 2 0.692915 0.407719 -0.418286
263 2 -1.25744 -1.7548 1.29244
407 2 -0.745853 0.123543 0.344371
384 2 -2.34447 -1.71654 -0.933105
238 1 1.46174 -1.07776 1.95042
382 1 1.45392 1.90944 -2.31831
409 1 -1.40052 1.91246 0.438348
413 1 1.78917 -0.687975 -0.190326
267 2 -0.203622 1.91613 -0.4986
411 2 0.267612 2.07517 -2.17105
388 2 1.09517 1.59974 0.0280363
412 2 -1.47134 -1.1195 0.963171
242 1 -0.171789 0.105734 -2.06775
386 1 -1.15761 1.76248 -1.67476
266 1 -0.166012 1.24812 -1.49472
410 1 -1.20174 -1.01211 1.92433
417 1 -1.61997 -1.93463 -2.18594
271 2 -1.96068 1.45066 -2.573
415 2 2.33776 -1.40246 1.35675
275 2 -0.958767 1.75598 -1.8782
419 2 -2.33919 -1.33885 -1.46004
392 2 0.490522 1.93945 1.21827
416 2 1.58227 -2.07452 -2.14488
246 1 -1.99544 0.914005 0.924963
390 1 -0.516481 2.19096 -1.1433
270 1 -0.176258 1.74546 0.229277
414 1 1.9704 -1.1337 2.18569
421 1 -0.680365 1.5367 -1.45445
279 2 -0.716604 -2.62692 2.05337
423 2 -1.51882 2.21227 2.19186
396 2 -0.290442 -0.270767 2.54447
420 2 -1.97305 1.69891 1.70131
250 1 -0.753813 0.0398418 -1.30506
394 1 -0.972729 0.368466 0.0111683
274 1 2.16616 -1.99073 0.0300028
418 1 -1.23488 -1.60034 -1.5637
254 1 -0.295695 -0.289849 -1.35538
398 1 0.515551 -0.0630881 0.635537
278 1 0.813026 0.642271 1.07566
422 1 -2.00721 -0.143389 -0.888167
425 1 0.799249 -0.632474 1.90869
283 2 0.943216 -2.48115 1.14233
427 2 -0.468934 2.28606 -1.34209
400 2 0.961995 0.910731 -2.12863
424 2 -1.47673 1.87218 -0.229367
404 2 -0.0151108 1.23399 -1.6781
428 2 -2.17901 0.426787 -2.55552
258 1 0.351689 -0.343117 0.502529
402 1 0.46238 -1.37394 -0.938464
282 1 -0.366799 -0.765941 -0.861433
426 1 0.875693 -1.55429 -0.0748277
429 1 -1.50569 -0.234945 0.303609
287 2 -1.01353 2.37524 -1.118
431 2 -2.61982 1.69645 1.91709
408 2 -1.73717 0.992958 0.909238
432 2 2.06025 2.18451 -1.23985
262 1 2.30797 1.83428 0.937953
406 1 -0.0962467 -1.58863 -1.43637
286 1 -1.24008 2.16808 -1.80958
430 1 -0.0588734 -1.92381 2.15393
505 1 0.0451528 0.169216 -0.15551
649 1 0.532025 -1.43586 -0.595376
529 1 0.788939 -1.19608 -0.508859
673 1 1.48679 -2.21407 -2.07832
509 1 2.29188 0.0737296 2.148
653 1 -1.31775 1.74298 1.62359
533 1 2.16253 -0.55595 2.32782
677 1 2.20656 0.612504 -0.273221
507 2 1.98947 -1.04282 -0.786827
531 2 -0.935895 1.09442 -0.649372
508 2 -0.115127 1.02016 0.20148
652 2 1.84509 2.49791 -0.0987622
506 1 0.509475 -1.43285 2.1223
513 1 1.8184 1.2786 2.33756
657 1 -0.92368 -0.420691 1.62179
537 1 -2.11645 1.26021 0.206068
681 1 2.33676 1.23176 1.93344
511 2 2.28651 0.999436 0.508968
535 2 1.99704 1.30772 -0.995099
515 2 -0.583188 2.15436 1.99664
539 2 1.36229 0.363091 -1.15186
512 2 -1.35685 -2.2628 2.43397
656 2 2.56879 -0.394177 -0.576828
510 1 -1.0277 -2.37374 0.922617
517 1 -0.408047 1.6008 1.12659
661 1 -0.116372 0.779219 -0.013906
541 1 1.42358 0.500234 -1.7964
685 1 -0.450924 0.593654 -0.450511
519 2 -1.49645 -1.73454 -1.78101
543 2 -0.449956 -1.37353 -1.58349
516 2 -2.37064 0.821881 -1.9976
660 2 2.09437 -1.98721 -2.12112
514 1 1.49696 0.737853 0.384144
518 1 1.6195 2.23618 0.843689
521 1 -1.38185 -1.01709 -0.148741
665 1 0.597574 1.62747 -1.45553
545 1 -1.58113 -1.55683 0.404663
689 1 -0.621513 -2.40746 0.269301
523 2 0.555439 0.251575 -2.11661
547 2 2.1724 -1.90305 2.14535
520 2 2.37944 1.8085 1.44276
664 2 2.34391 -2.04846 -1.25386
524 2 -1.66325 -0.296539 1.30357
668 2 2.566 -0.365404 -0.920781
522 1 0.965911 -1.25896 -1.83099
525 1 -1.61642 0.0870353 0.296237
669 1 2.13639 1.31367 1.66361
549 1 -1.55421 -0.225495 0.812984
693 1 0.219374 1.85353 -1.77357
527 2 0.777541 2.13271 2.37831
551 2 0.409536 -1.06232 -0.769005
528 2 1.38546 -0.39699 -1.02674
672 2 1.5043 -1.26687 0.949052
526 1 -0.7984 -0.918751 2.29908
553 1 0.580671 0.582435 -1.92134
697 1 -1.60365 -1.10085 -2.28979
557 1 2.0682 1.8785 0.541867
701 1 2.09711 -1.48036 -0.107032
555 2 1.70216 -0.914837 1.13505
532 2 -1.98803 -0.384464 1.36026
676 2 -0.0310731 -1.66228 0.27458
556 2 -1.72607 0.161468 -2.30052
700 2 0.709601 -0.14224 -1.98463
530 1 -1.73654 1.08694 0.238637
554 1 1.26759 -1.85901 2.23535
561 1 2.04259 -1.60876 0.712911
705 1 -2.22541 -2.12717 0.0234193
559 2 1.05987 1.50176 -2.30754
563 2 -0.937122 1.29123 -2.31778
536 2 -1.56337 -2.43117 -1.919
680 2 1.97507 1.49118 1.99784
560 2 -0.476432 1.16628 -0.0749075
704 2 -0.990271 -2.17185 1.14279
534 1 -0.445028 -1.06454 -1.28926
558 1 -1.77207 -1.22057 0.584595
565 1 -1.71468 -0.934083 -1.12188
709 1 2.30401 -2.36366 -2.36497
567 2 1.77334 -1.4904 1.14249
540 2 -0.449021 -1.26978 -1.10633
684 2 2.00851 1.62797 0.988282
564 2 -2.36927 -2.24798 1.65579
708 2 0.0966575 1.22674 1.43091
538 1 2.07267 0.309846 -1.7502
562 1 1.39812 -0.396718 1.5432
542 1 -0.647835 1.35365 2.01029
566 1 0.719278 -1.41422 -1.52533
569 1 -0.886822 0.175221 0.0234549
713 1 -1.10027 1.28301 -0.363046
571 2 0.178895 -0.757019 -0.244764
544 2 -1.02511 0.301154 -1.40941
688 2 -1.56299 -1.14829 0.941248
568 2 -1.22437 2.42435 2.12342
712 2 0.40131 1.18651 1.61556
548 2 2.14318 1.36165 0.0598737
692 2 0.0661196 -2.07137 -1.26044
572 2 -2.44187 0.367787 -0.287323
716 2 -2.19452 0.0305892 -0.857405
546 1 0.921229 0.981545 -0.930895
570 1 1.31516 1.30655 1.99313
573 1 0.429907 -0.252525 2.27678
717 1 -1.93471 -0.152695 1.01679
575 2 1.23845 0.458653 2.24532
552 2 -1.19497 2.3115 -0.453333
696 2 -2.35025 -0.00325856 -2.54459
576 2 1.14602 -2.24252 -0.197661
720 2 -0.475259 0.0654089 1.5552
550 1 2.19307 -0.61092 -0.447842
574 1 -0.0356484 -0.174908 1.87721
793 1 -1.77809 -1.73167 -2.0656
817 1 0.353983 -0.169214 1.63957
797 1 1.04967 0.775754 -0.689858
821 1 -1.97397 2.03918 0.148828
651 2 -1.69445 0.853421 2.54273
795 2 -2.26689 1.24919 -1.18268
675 2 1.85415 -1.36965 1.16412
819 2 -0.528176 0.496276 -0.262685
796 2 -1.2718 1.3795 -1.81857
650 1 -1.87309 -0.882319 0.531356
794 1 0.358181 -1.58215 1.79134
801 1 1.68781 -1.11549 1.23888
825 1 2.21467 -2.17575 -0.81854
655 2 0.935394 1.33588 -1.13859
799 2 2.14187 0.148718 1.97115
679 2 2.12372 2.0806 0.681796
823 2 0.669108 0.955513 1.2149
659 2 -0.111164 -0.0267294 -1.54614
803 2 1.08094 1.80417 1.52871
683 2 -1.71552 0.648797 -2.21856
827 2 2.29468 -2.18852 1.96781
800 2 -0.620557 -1.48626 -2.10304
654 1 0.251828 0.405154 -2.25935
798 1 -0.678016 -2.16077 1.50343
805 1 -1.78212 -2.19115 -0.682917
829 1 0.815725 -1.97487 -2.13319
663 2 0.98169 -1.10272 2.02463
807 2 0.626102 1.45372 2.05569
687 2 -1.05943 1.00264 2.24815
831 2 0.672974 -1.71289 -2.13841
804 2 -1.10889 2.37373 -0.444777
658 1 0.950294 0.122468 0.928601
802 1 0.490261 1.8554 0.909775
662 1 1.08681 1.31083 1.96517
806 1 1.38562 0.604105 -2.31595
809 1 2.31391 0.918456 -1.02749
833 1 0.987815 2.27213 0.54094
667 2 -2.557 1.2652 2.5048
811 2 1.61715 1.373 -1.71979
691 2 -2.04071 -1.15756 1.23964
835 2 0.545578 1.02187 -2.33363
808 2 0.632555 0.638423 0.356849
812 2 -0.511147 0.50278 -0.215181
666 1 2.13693 0.904549 0.319694
810 1 -2.17086 -1.72442 -0.0931291
813 1 1.23762 -1.80285 1.00426
837 1 -0.936003 -1.24806 -0.935513
671 2 0.34642 -0.309827 1.72521
815 2 -1.31091 -0.245877 -0.62337
695 2 -1.5103 -0.194251 -1.94377
839 2 -0.572427 0.884881 0.521163
816 2 -1.70125 0.994441 -0.176083
670 1 -2.36683 0.526317 0.0157372
814 1 -0.000419978 1.82138 0.118256
841 1 0.649191 0.814229 -1.68687
845 1 -1.71687 0.555746 0.480101
699 2 -0.239582 1.15528 2.38926
843 2 0.821903 -1.586 2.28586
820 2 0.680639 2.22886 -0.0339018
844 2 -1.64661 -1.68914 1.56694
674 1 1.25072 -2.39642 -1.15261
818 1 1.42351 -0.715753 -1.71392
698 1 -2.09206 -1.36752 1.45631
842 1 -2.29656 1.4359 -2.05969
849 1 -0.386899 2.03482 -1.21068
703 2 -1.16874 0.789828 0.467642
847 2 -0.0100469 -2.11818 -2.3084
707 2 -2.10434 1.42681 2.41027
851 2 -1.50388 -1.58797 0.357884
824 2 -1.73415 -0.27167 -2.22236
848 2 0.0175103 -2.08507 2.57195
678 1 -0.121067 -1.37241 0.885937
822 1 0.170451 -0.0348153 0.869202
702 1 -1.52265 -2.18798 -0.058247
846 1 -1.65627 1.98902 1.54458
853 1 0.860828 -1.92271 1.46781
711 2 -0.501005 -0.757974 -0.683884
855 2 -2.51656 -0.863921 -1.70675
828 2 1.9668 -2.18499 -1.13537
852 2 0.920716 -0.787901 1.08218
682 1 -1.04598 2.18533 0.15591
826 1 2.33295 -0.416454 0.876283
706 1 -0.295294 1.64294 -0.642836
850 1 0.330846 -0.450977 1.14423
686 1 1.08159 -0.00810512 -1.17484
830 1 0.943919 -1.47515 1.069
710 1 -0.0442712 -1.17526 -0.776316
854 1 -0.679049 -0.337586 2.31498
857 1 -1.23036 -2.29952 1.04033
715 2 -1.778 1.5639 1.2435
859 2 1.10132 0.904177 2.19699
832 2 0.616906 -2.19612 -0.869395
856 2 1.08949 -0.222144 -2.41548
836 2 0.315509 0.518764 -2.17096
860 2 0.0208212 1.52645 1.59457
690 1 1.58949 1.54377 2.16062
834 1 -1.57512 -1.39638 0.985217
714 1 1.47843 1.16791 -1.39273
858 1 -0.718717 -0.179947 -1.25697
861 1 2.01261 -1.61444 1.19578
719 2 -0.295677 0.211984 -1.4537
863 2 -0.35084 -0.682259 2.17803
840 2 1.68928 1.07936 1.2512
864 2 1.41702 -0.701216 0.976204
694 1 -0.836413 -1.74705 -1.52432
838 1 -1.9815 0.126302 -1.79298
718 1 0.117817 -1.92416 0.988258
862 1 0.602492 -2.06408 0.133871
