ITEM: TIMESTEP
0
ITEM: NUMBER OF ATOMS
864
ITEM: BOX BOUNDS pp pp pp
0.0000000000000000e+00 3.2219999999999999e+01
0.0000000000000000e+00 3.2219999999999999e+01
0.0000000000000000e+00 3.2219999999999999e+01
ITEM: ATOMS id type vx vy vz
1 1 -0.545169 -2.11174 -6.09139
145 1 2.01129 -2.49808 5.77303
25 1 -1.99109 -0.094563 4.38606
169 1 2.28953 -1.40136 0.764402
5 1 -5.87639 2.24005 -2.06783
149 1 -4.41105 0.748434 -3.41377
29 1 1.37547 2.79421 -1.05728
173 1 4.09132 -1.10174 -2.25263
3 2 -0.453019 -0.00951423 3.72268
27 2 6.47155 6.56303 -5.81266
4 2 5.5841 5.18036 3.43895
148 2 2.90031 -6.09485 3.89733
2 1 -2.81251 -5.71119 -0.0797036
9 1 -0.651506 3.06472 -4.40426
153 1 1.42165 1.8337 -0.395881
33 1 3.35317 1.60092 -2.19726
177 1 -4.47436 2.05452 0.837882
7 2 1.46677 4.55897 0.772606
31 2 5.22445 -3.25254 1.13549
11 2 -0.680561 -4.06983 -3.87498
35 2 -3.5375 -2.4668 6.27509
8 2 -4.41686 -3.96168 5.58527
152 2 -4.21042 -1.18622 -5.84207
6 1 4.73134 1.48204 5.30505
13 1 2.04624 -4.18239 -0.427741
157 1 -4.54343 -5.66551 3.05062
37 1 -4.88028 -1.60037 2.56771
181 1 4.12229 5.55587 0.471666
15 2 -6.48556 3.77383 5.75183
39 2 5.66237 1.98596 2.40785
12 2 5.25317 3.71097 -3.83403
156 2 -6.82548 0.762777 0.247082
10 1 -4.91612 -2.39033 -0.700202
14 1 0.919781 2.36191 3.02979
17 1 -0.509944 0.81831 5.33097
161 1 1.80765 -3.26794 2.01399
41 1 4.28182 4.54772 2.62323
185 1 2.3877 -5.96277 -4.39458
19 2 4.1494 -3.6379 -4.25368
43 2 -1.16635 1.88898 3.80599
16 2 6.40858 -4.8243 0.0382683
160 2 -1.8375 5.88614 -3.16655
20 2 5.38519 6.49628 0.650444
164 2 -3.38519 1.45825 -2.78056
18 1 0.0528935 -2.80737 -3.30522
21 1 6.08659 4.70818 4.50243
165 1 5.17651 0.671005 -1.21115
45 1 3.23763 2.59416 -4.19723
189 1 -3.73156 2.43817 -6.23339
23 2 0.42081 3.65118 -2.71805
47 2 -4.47946 4.26822 -5.20791
24 2 0.121822 -4.82425 0.82723
168 2 2.52082 5.40859 5.48614
22 1 -2.42269 3.26786 0.391491
49 1 -4.74596 -0.347326 5.25796
193 1 3.18939 -6.02157 -2.42733
53 1 1.71401 2.1269 1.45007
197 1 1.63717 1.71679 2.58453
51 2 6.65518 -6.77031 3.35776
28 2 1.98766 3.85665 -2.4532
172 2 2.90661 4.63639 -3.13317
52 2 4.59799 4.13728 -3.43076
196 2 6.26951 -3.79721 -3.533
26 1 -1.20716 2.12562 5.00511
50 1 5.88885 2.84863 -1.35955
57 1 -3.88538 -0.926362 -0.149218
201 1 -4.8224 5.9352 -4.06607
55 2 -3.06838 -3.17637 3.44397
59 2 5.32917 2.95288 -6.397
32 2 1.32735 -0.262152 -0.66405
176 2 3.01023 5.88249 3.55338
56 2 4.96473 -4.29366 0.108845
200 2 5.98946 -6.76415 -1.91167
30 1 4.02472 -4.86128 -4.55127
54 1 0.820225 -3.84794 5.41178
61 1 4.40106 3.14436 5.38862
205 1 1.9863 3.5356 0.655313
63 2 2.07119 -6.10049 4.2091
36 2 4.48284 -0.765348 -1.68784
180 2 3.83912 1.96536 -4.03416
60 2 0.296164 2.38384 0.701716
204 2 1.60102 4.13464 6.56268
34 1 2.1227 2.3717 4.66651
58 1 4.98467 -2.35602 -0.520858
38 1 -4.10142 2.9918 -1.73225
62 1 -5.61445 5.17605 -3.37039
65 1 5.74403 0.459567 4.83108
209 1 -5.56935 -1.40458 -3.21991
67 2 -0.621281 -0.198791 3.81966
40 2 -5.82435 -4.08685 -4.47833
184 2 -5.63149 1.60121 -6.41456
64 2 0.0244133 3.04636 1.32531
208 2 5.09519 -0.446436 1.75896
44 2 -4.31044 3.65022 -5.29665
188 2 5.88918 -6.28951 -4.90218
68 2 -0.0361212 5.2801 -6.02965
212 2 -6.63718 -2.16636 -1.72921
42 1 5.46604 3.5188 -6.07942
66 1 -3.70388 3.86604 1.68859
69 1 2.74888 -2.02074 -5.78019
213 1 4.88366 4.65395 -4.48701
71 2 -6.82171 -3.83691 -4.62028
48 2 4.53813 4.02774 4.45576
192 2 -3.67308 2.79731 2.82641
72 2 -0.130483 -3.62398 -1.46618
216 2 -2.20741 1.80494 5.26288
46 1 -2.89775 3.05092 1.67568
70 1 -5.81167 -0.469836 1.82593
289 1 4.2998 5.79521 -0.391108
313 1 -5.53081 -5.49478 2.17044
293 1 5.05638 -0.410687 5.74249
317 1 -1.05474 -5.71283 -2.57514
147 2 0.105707 -3.76691 2.73462
291 2 -2.20115 -1.62642 5.15199
171 2 -6.25815 5.58749 -5.96103
315 2 4.23279 -2.35741 -4.15474
292 2 -4.26838 3.66577 -2.11285
146 1 -4.99321 5.53228 5.0477
290 1 -1.46017 -1.15009 -0.192908
297 1 -2.12544 -1.95012 2.88536
321 1 -2.29835 -0.188783 0.132723
151 2 4.8511 2.76261 4.12899
295 2 6.62003 0.552978 -4.70165
175 2 6.31964 -4.30639 3.68516
319 2 2.80046 1.4696 -2.39086
155 2 0.83994 5.6802 2.34065
299 2 0.336068 -6.70975 1.59165
179 2 0.514911 -5.41616 4.28488
323 2 -1.17766 2.26301 -4.31049
296 2 1.47351 -4.58995 -3.91685
150 1 -3.39822 2.01376 5.19064
294 1 -2.03958 -0.31852 0.563499
301 1 1.90809 5.28669 1.20571
325 1 -1.16058 -4.75061 0.546216
159 2 -4.28364 5.44322 2.86099
303 2 -1.1308 1.25265 -5.05553
183 2 -6.66539 -0.5361 3.83949
327 2 -4.15418 6.04375 -5.30286
300 2 -4.61373 4.43261 -2.11784
154 1 2.58751 5.63428 2.1461
298 1 4.38051 -3.89842 -3.16427
158 1 -1.41947 6.07077 5.84681
302 1 1.19769 -2.01946 3.08192
305 1 -5.91745 1.47423 -0.546132
329 1 -2.39549 -3.32954 -5.55485
163 2 1.11261 -6.72699 -2.5924
307 2 -0.856099 -4.18255 4.97582
187 2 5.93313 -1.74248 -1.46729
331 2 4.98482 -6.46245 -2.11361
304 2 -1.30645 -0.723142 0.713646
308 2 3.47012 -0.401004 4.01918
162 1 -0.792964 -5.48556 -5.79471
306 1 2.91524 -1.15323 -2.80358
309 1 -4.28339 3.01104 -4.18794
333 1 -4.83586 5.42147 -2.29236
167 2 1.84225 -6.50101 2.29628
311 2 -3.63244 6.08047 0.162462
191 2 4.14884 0.57878 -6.09256
335 2 1.14969 4.75019 6.10979
312 2 -2.29445 -6.41303 -0.791827
166 1 -0.809343 -5.02081 -3.4359
310 1 5.62142 -4.55819 0.664959
337 1 -4.32374 1.6432 -6.04545
341 1 -0.209194 4.27974 -1.66127
195 2 4.10345 -1.02772 -6.49975
339 2 2.34344 1.56976 -4.81796
316 2 5.8359 -4.59336 -6.78003
340 2 2.77775 0.413435 1.95555
170 1 3.78135 3.53088 -3.53409
314 1 -3.02154 3.25515 -0.0404407
194 1 -0.899274 0.14008 -0.202807
338 1 4.18637 4.69022 3.52079
345 1 -2.95309 0.452292 -4.63556
199 2 5.8387 1.67051 2.66234
343 2 -6.22634 -3.59498 -3.37406
203 2 1.86949 2.65173 3.23226
347 2 4.59699 0.867181 1.18907
320 2 3.91123 4.08815 0.154121
344 2 -2.49977 -3.99402 5.91285
174 1 -4.5753 -2.32619 -0.565566
318 1 2.09447 4.15749 -0.746948
198 1 -1.87684 2.43428 3.59264
342 1 -0.281813 -0.418257 3.86146
349 1 -5.20852 -3.40159 -0.748876
207 2 -6.57315 -0.104883 5.08449
351 2 5.50553 3.42383 -3.48069
324 2 4.97116 -4.95157 -4.57022
348 2 -1.34662 3.88608 2.65669
178 1 -2.21919 1.56166 2.3292
322 1 5.35125 4.58294 5.45273
202 1 -5.65201 0.579687 5.6902
346 1 -4.57841 -4.49229 5.34231
182 1 3.77984 3.17953 -5.08789
326 1 -3.51171 -0.23974 -3.98836
206 1 -0.0479752 -6.00592 -2.67959
350 1 -0.0192539 0.417682 2.76993
353 1 -4.46567 -2.33353 1.4444
211 2 -1.52078 -0.248306 0.928145
355 2 6.45869 -5.63853 5.64079
328 2 -6.01515 -2.4965 -3.49994
352 2 1.11091 5.57395 -2.33768
332 2 4.17196 -5.05566 -0.24058
356 2 -0.830549 3.77791 6.34598
186 1 -4.52787 5.22217 -5.34963
330 1 2.009 -3.42318 -0.0715314
210 1 -4.88165 0.302436 -3.91407
354 1 -5.05617 0.123948 4.42133
357 1 0.87767 -3.49293 5.86535
215 2 1.61456 0.514478 0.792684
359 2 -3.82281 1.3638 0.377809
336 2 -4.33246 0.551034 3.41019
360 2 -3.8997 0.649106 6.69484
190 1 -4.58925 1.3756 -3.86108
334 1 -5.34753 4.20397 3.37678
214 1 -5.99166 -4.89186 -4.49536
358 1 -4.87938 0.985334 4.85345
433 1 5.23742 -3.4299 -0.155059
577 1 3.37619 -0.0279964 -4.89643
457 1 -0.302207 -4.76436 -5.01987
601 1 -6.1973 -1.60518 -3.02515
437 1 0.142413 -2.34173 1.42221
581 1 5.32691 -3.52645 -5.99466
461 1 -1.44898 -1.13798 2.82565
605 1 2.57387 2.07564 4.76029
435 2 -4.20466 0.54426 -1.67169
459 2 4.16137 -6.42544 -5.57012
436 2 6.61986 -2.15886 2.0469
580 2 -2.19717 -2.72786 -3.80209
434 1 0.434252 1.77557 0.257358
441 1 2.45405 -6.32553 2.76137
585 1 5.56778 -3.65294 -1.21092
465 1 0.114565 5.90939 0.928895
609 1 -5.5887 -0.796247 5.764
439 2 -5.33769 4.5836 6.78648
463 2 5.24519 5.50517 -2.73824
443 2 0.692073 -5.19952 1.797
467 2 -1.18566 3.66917 0.614879
440 2 4.71568 -2.7833 2.49041
584 2 -1.89863 -1.8687 -1.99649
438 1 4.40581 -4.72603 -0.0275069
445 1 0.0138019 4.48727 1.7777
589 1 -3.68515 5.32952 -6.03839
469 1 -5.72641 3.58976 -4.08081
613 1 0.948217 3.99625 -3.27632
447 2 -0.357335 3.92051 -3.19155
471 2 0.387402 -0.433343 4.3058
444 2 2.24612 -2.63773 2.01252
588 2 1.70144 6.05987 -6.28774
442 1 -0.459372 -1.52928 -5.86438
446 1 -4.11191 2.20304 2.68361
449 1 3.74668 -2.69218 2.41321
593 1 4.04547 5.47939 6.11862
473 1 -5.95695 1.9499 -2.81154
617 1 1.40669 1.11116 1.38334
451 2 3.64291 -5.63285 5.93508
475 2 -6.00525 0.916303 -2.53084
448 2 -5.79229 4.56506 -5.58168
592 2 0.0954908 1.27172 2.6996
452 2 -0.306161 -6.09561 4.76398
596 2 -4.09808 -2.69652 6.29593
450 1 2.81206 -5.63081 -2.86272
453 1 -4.46046 -2.50786 4.37135
597 1 5.06558 3.86268 -4.56813
477 1 -6.3253 2.90853 2.63136
621 1 2.71507 -6.32917 4.33286
455 2 3.19491 -3.50414 0.610238
479 2 -1.62694 -3.58726 4.00691
456 2 -4.21165 5.3166 -4.37582
600 2 -3.70873 1.78091 -4.30628
454 1 -6.27289 -6.16813 3.56021
481 1 -2.92368 5.90718 1.34222
625 1 2.10134 -5.63495 2.78037
485 1 -2.81425 2.66541 2.55063
629 1 5.52218 -5.51724 0.830741
483 2 -5.46347 -2.27211 1.97419
460 2 3.01628 -1.19585 -4.56814
604 2 6.01952 -4.47752 -3.99723
484 2 6.37608 6.2817 -3.06084
628 2 5.66779 -2.16273 4.94024
458 1 -1.71593 -0.503357 2.47097
482 1 -4.62243 -4.84308 0.517074
489 1 1.03341 -5.57976 2.87695
633 1 1.0284 -2.01198 3.54359
487 2 -2.65274 -5.488 6.77849
491 2 2.24953 0.350465 4.05177
464 2 2.98448 -5.47566 -3.20304
608 2 -5.77938 3.91414 -1.62147
488 2 -0.516276 -2.75123 -2.31984
632 2 5.08545 -1.06686 1.84636
462 1 0.437274 2.41637 3.36064
486 1 3.32614 -1.40102 -6.07754
493 1 -3.95311 1.45889 4.71463
637 1 -0.882462 -5.59188 -0.207621
495 2 6.57161 2.58876 5.20729
468 2 4.9758 4.95372 0.859818
612 2 -4.43154 -6.01255 0.338093
492 2 5.41611 -4.08045 -5.58557
636 2 -5.41039 6.15037 5.67801
466 1 -1.06699 1.58298 -2.89894
490 1 -1.76781 4.84857 -4.87547
470 1 -1.21406 -1.0814 1.28643
494 1 -4.77497 1.02755 -0.0251353
497 1 -5.15433 4.85359 4.40758
641 1 1.63526 -5.23261 -3.52125
499 2 -0.322575 3.53712 -2.70615
472 2 -3.41345 2.35339 5.58087
616 2 -0.465667 4.93915 0.773106
496 2 -2.91623 -1.91081 -2.71611
640 2 -3.73338 -4.70091 -6.24138
476 2 0.587323 1.64342 -3.89444
620 2 3.15361 -4.31113 5.57994
500 2 0.435135 -0.293527 2.21883
644 2 1.90298 -5.36355 4.80157
474 1 5.44973 5.11489 -3.40336
498 1 4.19044 -2.14926 2.52683
501 1 1.8544 5.36087 -5.53516
645 1 -4.97876 -2.25328 -3.44279
503 2 0.028261 -0.260769 -4.61538
480 2 -1.86881 -3.68116 2.80677
624 2 1.28217 1.73323 -3.55637
504 2 -1.54142 6.32379 -2.5319
648 2 -1.92957 -5.1774 6.48155
478 1 5.88994 -3.81931 -2.14248
502 1 1.69383 1.49266 -4.19289
721 1 -1.08127 -0.431118 0.776514
745 1 -2.68565 -4.4207 5.19652
725 1 3.19579 1.25048 -1.00742
749 1 1.91583 -2.56414 -1.46827
579 2 3.01714 -0.225071 -2.82002
723 2 1.00442 -3.2341 -1.62241
603 2 0.216947 3.31767 6.76776
747 2 -6.58876 -4.05616 -5.25052
724 2 -5.90423 -0.745048 -0.398821
578 1 -0.507213 -3.42315 0.466135
722 1 3.19845 -4.29027 3.92935
729 1 -3.56652 6.14589 2.48348
753 1 -1.04007 2.75169 -1.25204
583 2 4.35157 -4.58552 2.54595
727 2 -3.83428 -1.13754 -3.34997
607 2 -0.514292 3.40646 3.68953
751 2 -0.539845 -4.61804 -0.205924
587 2 1.52001 2.0678 4.68493
731 2 -6.46226 1.16936 -4.68873
611 2 2.03984 -2.82669 -6.24467
755 2 -3.9293 6.07068 -1.34715
728 2 0.981745 -3.75656 -0.0827877
582 1 2.09529 5.43753 4.4472
726 1 -1.94488 -0.566844 0.830634
733 1 -5.59402 -2.35292 1.38548
757 1 2.07192 1.18615 -4.149
591 2 2.97487 -3.85389 -4.53212
735 2 -1.06465 -1.83125 2.15316
615 2 5.18912 1.21463 -5.14087
759 2 5.53346 -3.08331 4.07648
732 2 4.67902 6.42172 -1.62403
586 1 -5.50984 -3.90491 0.53029
730 1 -1.11062 -4.78036 1.84803
590 1 1.17378 -2.75309 -5.92442
734 1 4.12209 2.20559 -4.66829
737 1 3.14877 0.549052 4.71089
761 1 -3.23222 -3.09839 -6.23381
595 2 -6.87449 6.39205 2.65033
739 2 -5.68226 4.85373 6.22964
619 2 0.854511 5.86693 0.218594
763 2 2.49409 4.8875 2.80353
736 2 -6.47026 2.6733 -1.3509
740 2 -1.97963 -3.61326 1.94395
594 1 4.43827 1.84297 4.91515
738 1 1.43036 -2.12419 -2.3814
741 1 1.18241 4.41777 -0.519255
765 1 -4.68064 -5.46676 -3.19292
599 2 5.67309 5.41407 2.2791
743 2 4.66359 5.51766 3.1413
623 2 -0.172607 -4.65354 1.39822
767 2 -4.32615 -2.11285 0.336444
744 2 6.08739 -5.76382 -6.48815
598 1 -1.28486 -0.243257 -0.432772
742 1 -0.206922 4.87406 -2.65307
769 1 -2.67227 -5.02057 0.703277
773 1 -1.44713 4.85018 -2.8354
627 2 4.64823 5.5081 5.70674
771 2 -4.73329 -6.56031 -1.89779
748 2 -5.46909 -1.476 4.55132
772 2 2.2321 6.45933 5.04041
602 1 4.61759 -5.11978 0.192925
746 1 2.3507 -1.05173 -1.46456
626 1 -3.66675 1.14568 5.04923
770 1 0.459782 4.68837 -2.42343
777 1 -2.60693 2.65247 -1.84989
631 2 1.03967 4.58547 -2.41799
775 2 -0.445696 0.706188 0.819817
635 2 1.83114 -2.86356 -0.443304
779 2 -0.209928 -6.5193 -6.03046
752 2 5.72105 -4.38705 -6.14599
776 2 -0.963088 5.79704 -5.21503
606 1 -1.17089 -2.46748 -6.24546
750 1 -4.65383 -6.03573 -2.30282
630 1 -5.54861 -3.69893 3.03316
774 1 -6.07049 -1.13242 -4.00347
781 1 -0.766284 4.23746 2.26882
639 2 0.650122 -3.31859 5.81232
783 2 -6.35313 -0.0336902 5.25198
756 2 -5.44365 4.60414 -1.36269
780 2 -1.96126 6.01103 2.28925
610 1 -5.5671 -1.10485 -4.31171
754 1 -5.68268 -0.887451 2.0565
634 1 -2.74148 -2.62479 -5.47622
778 1 5.27181 -1.97324 2.802
614 1 -4.10047 -6.00426 0.163018
758 1 -1.83543 -3.5464 -2.96823
638 1 4.40937 4.92315 -4.71841
782 1 3.3526 4.61269 4.01171
785 1 -6.31657 -0.827177 -0.192816
643 2 4.31833 -5.75094 6.02441
787 2 -0.0957311 -4.13718 6.14171
760 2 -2.18653 -0.774471 -5.47721
784 2 -1.83169 -5.09882 -5.05373
764 2 -0.64784 2.06218 5.46774
788 2 5.05925 -6.37483 2.21251
618 1 -3.6601 0.202143 2.5591
762 1 -4.82545 4.87474 -3.64298
642 1 -4.35131 2.03649 -1.4454
786 1 2.22427 4.82755 5.3596
789 1 -2.59125 3.01802 0.278928
647 2 4.46946 5.49537 -4.43809
791 2 5.66073 1.60487 0.722517
768 2 -1.56301 -3.08966 6.16549
792 2 2.26742 1.8434 -0.780583
622 1 5.02026 -5.81628 1.02053
766 1 1.44048 4.88978 -1.65539
646 1 -2.65631 0.0107449 -5.54296
790 1 5.2353 -1.39327 -1.12512
73 1 -5.73287 -4.62891 2.77609
217 1 3.88773 -0.997361 -2.69305
97 1 5.70041 -5.59045 -1.30535
241 1 2.44637 2.51382 -0.752843
77 1 0.474062 -5.98877 -2.63367
221 1 -3.16906 5.61451 -4.1852
101 1 -0.974257 5.84066 -1.08576
245 1 -2.64016 -4.3706 -5.11581
75 2 1.92504 -1.72896 -5.28994
99 2 -3.39431 -2.3108 4.26182
76 2 0.890217 -5.8087 0.455078
220 2 -4.86719 -0.178286 -5.03175
74 1 -3.74779 5.28088 3.74016
81 1 -1.48487 -2.79649 4.12545
225 1 4.12322 -3.7846 4.50808
105 1 -2.87494 -2.15145 3.25632
249 1 -1.65673 4.21613 -5.41215
79 2 -3.90986 6.50617 3.78671
103 2 -4.17393 0.420473 -2.11561
83 2 -4.51601 1.80351 -5.13756
107 2 4.20589 -5.87613 -4.31008
80 2 5.36819 6.31567 -3.15172
224 2 -2.16233 -1.82593 -3.63644
78 1 -0.0573315 -0.31396 2.00924
85 1 -0.732938 0.645705 -0.27073
229 1 6.02897 1.4038 -6.16815
109 1 -6.07467 3.79476 -5.48677
253 1 4.384 4.74606 2.04643
87 2 3.49898 -4.72056 3.34759
111 2 0.809136 4.56686 -2.51568
84 2 -6.05788 -0.0286457 -5.13158
228 2 6.17992 -0.539035 -4.69348
82 1 -0.778621 -2.55947 1.89595
86 1 -3.82561 1.021 2.6398
89 1 5.52452 -3.77313 -3.23925
233 1 3.47629 2.82282 3.51171
113 1 -2.50168 4.18171 5.2934
257 1 -3.41511 -6.04831 -0.712497
91 2 2.19338 -5.43511 -1.57919
115 2 3.95618 -1.82416 -1.04019
88 2 -3.82981 6.12752 2.36998
232 2 6.64923 1.97385 2.71871
92 2 -1.3397 -2.13371 3.33475
236 2 -2.72677 1.0108 -4.99558
90 1 0.0449188 1.03701 -3.96961
93 1 -3.47789 4.20995 3.62699
237 1 -2.10995 -4.91072 4.36514
117 1 -4.46116 -1.75692 3.66899
261 1 5.23619 0.936896 5.47313
95 2 1.16138 -2.75825 2.07266
119 2 -0.925465 -0.83236 0.436236
96 2 -2.59519 -3.46447 1.1803
240 2 2.29446 -5.90031 -2.87568
94 1 -4.04063 -3.12234 4.96385
121 1 -0.854474 1.05285 -0.920239
265 1 -4.49185 -3.51609 5.19939
125 1 2.62457 1.85841 1.16242
269 1 3.82088 3.53932 0.47336
123 2 1.13518 5.62119 3.02697
100 2 0.179547 0.108383 0.322681
244 2 6.01202 5.34164 -5.0351
124 2 0.835733 2.94632 5.70561
268 2 -5.14185 5.9731 3.7098
98 1 5.88328 -3.03036 -3.45712
122 1 5.2716 -5.50638 -4.67477
129 1 -4.97833 4.95426 4.171
273 1 -1.07353 4.44989 0.360938
127 2 2.00516 -1.08223 1.85372
131 2 -3.34267 -4.4772 1.34557
104 2 -6.72921 0.892046 -2.36463
248 2 5.01483 -5.1647 2.4325
128 2 -5.17609 1.50524 -1.61694
272 2 -2.87916 -4.29288 -0.495955
102 1 -3.66171 -1.81675 0.869167
126 1 5.87537 2.00128 -4.09833
133 1 1.31836 -4.44346 -1.21614
277 1 -3.05493 6.02251 -3.06065
135 2 -5.56183 3.26941 -2.14991
108 2 0.847108 3.79015 -5.46234
252 2 -6.06261 2.12214 -6.40293
132 2 5.64208 0.790784 -4.86876
276 2 2.78416 -0.510268 2.96749
106 1 -0.6945 -5.10027 2.28283
130 1 5.32116 0.119926 -0.515386
110 1 0.564195 4.79249 5.23638
134 1 -2.22226 0.101856 -3.39363
137 1 1.32736 -3.53656 -0.419219
281 1 5.71525 5.55995 -6.19114
139 2 4.47699 -3.78392 2.34695
112 2 4.92012 -6.3893 3.76107
256 2 2.50111 0.530764 2.60646
136 2 -5.29701 -5.10724 3.00239
280 2 0.199834 1.19099 5.32918
116 2 -1.60264 -3.02525 0.940092
260 2 -2.55064 -2.47891 6.58594
140 2 1.86545 2.68236 1.36052
284 2 -3.33655 3.29876 1.62838
114 1 2.04976 4.8427 -3.15591
138 1 -2.79848 4.50486 -3.40169
141 1 5.89558 3.18564 -2.66788
285 1 5.54324 -2.49123 -4.40395
143 2 -5.77345 -5.18742 1.25494
120 2 3.25446 5.02033 5.65606
264 2 5.77871 -0.455011 -6.39712
144 2 6.70158 -1.82828 -2.27233
288 2 3.55586 -0.486006 2.88066
118 1 -3.45308 -4.90259 3.1668
142 1 2.05896 -3.51356 -2.40903
361 1 -1.53781 -2.57234 -1.37352
385 1 5.56168 -5.92178 -4.8643
365 1 -4.57796 3.10283 -3.26551
389 1 -1.90593 2.2356 -1.66112
219 2 0.438511 2.06456 4.70969
363 2 4.39411 3.41126 2.75277
243 2 -4.08872 5.02872 -2.94834
387 2 5.38894 1.57292 -6.09239
364 2 -2.12254 0.761921 -0.553034
218 1 -5.69892 1.83813 -1.20743
362 1 -3.95303 2.73816 -3.00266
369 1 -3.56825 2.10524 0.87109
393 1 -0.379269 3.59919 4.01645
223 2 -2.58093 5.01047 2.99732
367 2 -4.86329 -2.53717 6.22228
247 2 -3.00092 2.25549 5.27821
391 2 -5.977 -0.199193 -2.93583
227 2 6.27315 2.95778 -5.56176
371 2 5.10149 -3.3527 3.53758
251 2 6.53907 -0.50019 -4.39727
395 2 2.42707 -6.7901 -2.97819
368 2 6.11374 1.90306 -4.23366
222 1 -2.46874 -6.08109 -0.0949385
366 1 -3.13306 -3.58244 5.47769
373 1 -3.29136 5.63871 1.41567
397 1 -4.8104 -5.34578 -0.265859
231 2 -2.36959 -4.92451 1.56341
375 2 3.09097 3.39507 2.54969
255 2 -3.97149 4.05638 -3.67922
399 2 -2.70234 3.80775 4.86986
372 2 5.86082 6.46784 -1.38001
226 1 3.43468 5.3875 3.29921
370 1 2.71649 4.99349 -0.737644
230 1 0.795712 -2.20595 2.33169
374 1 2.72424 -2.6018 4.80996
377 1 2.61241 -1.93266 -4.46343
401 1 5.05743 4.73072 -5.08249
235 2 0.0205168 5.53336 -4.87816
379 2 6.22528 0.562378 3.73648
259 2 -4.23546 -0.474377 -5.59496
403 2 2.20397 -4.09768 3.92046
376 2 3.23273 -6.84671 -2.79541
380 2 6.2246 2.66668 -3.80841
234 1 -0.855135 2.479 3.07261
378 1 -1.09583 5.67198 -3.32479
381 1 4.76994 -1.51616 1.65404
405 1 -3.66683 -0.234237 0.761746
239 2 2.46909 6.06485 -4.04843
383 2 1.81034 1.06523 -1.09283
263 2 -3.28525 -4.58467 3.3767
407 2 -1.94865 0.322775 0.899722
384 2 -6.12528 -4.48471 -2.43788
238 1 3.81901 -2.81582 5.09576
382 1 3.79859 4.9887 -6.05692
409 1 -3.65906 4.99659 1.14525
413 1 4.67446 -1.79744 -0.497255
267 2 -0.531992 5.00617 -1.30267
411 2 0.699176 5.42168 -5.6722
388 2 2.86129 4.17956 0.073249
412 2 -3.8441 -2.92486 2.51643
242 1 -0.448823 0.276246 -5.4023
386 1 -3.02444 4.60473 -4.37556
266 1 -0.433731 3.26089 -3.90518
410 1 -3.13972 -2.6443 5.0276
417 1 -4.23241 -5.05451 -5.71109
271 2 -5.12257 3.79007 -6.72234
415 2 6.10774 -3.66413 3.54471
275 2 -2.50492 4.58775 -4.90707
419 2 -6.11147 -3.49793 -3.81458
392 2 1.28156 5.0671 3.18291
416 2 4.13392 -5.41998 -5.60382
246 1 -5.2134 2.38797 2.4166
390 1 -1.34938 5.72421 -2.98703
270 1 -0.460501 4.56028 0.599021
414 1 5.14796 -2.96195 5.71044
421 1 -1.77756 4.01487 -3.79998
279 2 -1.87224 -6.86322 5.36473
423 2 -3.96815 5.77989 5.72656
396 2 -0.758824 -0.70742 6.64781
420 2 -5.15488 4.43866 4.44494
250 1 -1.96945 0.104093 -3.40967
394 1 -2.5414 0.962674 0.0291788
274 1 5.65942 -5.20108 0.0783868
418 1 -3.22632 -4.18112 -4.0854
254 1 -0.772547 -0.757275 -3.54113
398 1 1.34695 -0.164827 1.66044
278 1 2.12415 1.67803 2.81033
422 1 -5.24414 -0.374624 -2.32047
425 1 2.08816 -1.65243 4.98675
283 2 2.46429 -6.48237 2.9845
427 2 -1.22516 5.97267 -3.5064
400 2 2.51336 2.37942 -5.56137
424 2 -3.85819 4.89135 -0.599256
404 2 -0.0394791 3.22398 -4.38427
428 2 -5.693 1.11505 -6.67669
258 1 0.918841 -0.896444 1.31293
402 1 1.20804 -3.58963 -2.45188
282 1 -0.958317 -2.00114 -2.25062
426 1 2.28788 -4.06082 -0.195498
429 1 -3.93384 -0.61383 0.793223
287 2 -2.648 6.20567 -2.92094
431 2 -6.84467 4.43223 5.00869
408 2 -4.53861 2.59425 2.37552
432 2 5.38272 5.70737 -3.2393
262 1 6.02991 4.79232 2.45054
406 1 -0.251459 -4.15052 -3.75274
286 1 -3.2399 5.66444 -4.7278
430 1 -0.153816 -5.02624 5.62746
505 1 0.117968 0.442103 -0.406293
649 1 1.39 -3.75141 -1.55551
529 1 2.06122 -3.12495 -1.32947
673 1 3.88446 -5.78459 -5.42993
509 1 5.98788 0.19263 5.61197
653 1 -3.44282 4.55379 4.24188
533 1 5.64995 -1.4525 6.08178
677 1 5.76498 1.60026 -0.71383
507 2 5.19779 -2.72452 -2.0557
531 2 -2.44517 2.85933 -1.69658
508 2 -0.300787 2.66532 0.526397
652 2 4.82058 6.52615 -0.258031
506 1 1.33108 -3.74353 5.54484
513 1 4.75084 3.34054 6.10724
657 1 -2.41325 -1.09912 4.23718
537 1 -5.52955 3.29248 0.538383
681 1 6.10514 3.21817 5.05139
511 2 5.97384 2.61118 1.32976
535 2 5.21757 3.4166 -2.59984
515 2 -1.52367 5.6286 5.21653
539 2 3.55918 0.94863 -3.0094
512 2 -3.54498 -5.91189 6.35911
656 2 6.71134 -1.02985 -1.50705
510 1 -2.68501 -6.20176 2.41048
517 1 -1.06609 4.18232 2.94338
661 1 -0.30404 2.03583 -0.0363315
541 1 3.71932 1.30694 -4.69337
685 1 -1.17811 1.55101 -1.17703
519 2 -3.90971 -4.53176 -4.65316
543 2 -1.17558 -3.58855 -4.13709
516 2 -6.19365 2.14729 -5.21903
660 2 5.47186 -5.19187 -5.54175
514 1 3.91102 1.92775 1.00363
518 1 4.23119 5.84235 2.20426
521 1 -3.6103 -2.6573 -0.388608
665 1 1.56125 4.25202 -3.80279
545 1 -4.13093 -4.06746 1.05724
689 1 -1.6238 -6.28986 0.70359
523 2 1.45117 0.657277 -5.52995
547 2 5.67571 -4.972 5.60504
520 2 6.21663 4.72497 3.76943
664 2 6.12382 -5.3519 -3.2759
524 2 -4.34549 -0.774751 3.40578
668 2 6.70406 -0.954673 -2.40568
522 1 2.52359 -3.28922 -4.78373
525 1 -4.22315 0.227393 0.773963
669 1 5.58163 3.43216 4.34643
549 1 -4.06062 -0.58914 2.12404
693 1 0.573147 4.84262 -4.63373
527 2 2.03144 5.57204 6.2137
551 2 1.06997 -2.77548 -2.00914
528 2 3.61973 -1.0372 -2.68251
672 2 3.93021 -3.3099 2.47954
526 1 -2.08594 -2.40037 6.00668
553 1 1.51709 1.5217 -5.0198
697 1 -4.18977 -2.87614 -5.98241
557 1 5.40348 4.90786 1.41571
701 1 5.47902 -3.86767 -0.279636
555 2 4.44715 -2.39015 2.96549
532 2 -5.19403 -1.00447 3.55388
676 2 -0.0811832 -4.34296 0.717382
556 2 -4.50962 0.421859 -6.01045
700 2 1.85394 -0.371622 -5.18515
530 1 -4.53696 2.8398 0.623474
554 1 3.31177 -4.85694 5.8402
561 1 5.33656 -4.20314 1.86259
705 1 -5.81421 -5.55755 0.0611863
559 2 2.76906 3.92358 -6.0288
563 2 -2.44837 3.37353 -6.05553
536 2 -4.08454 -6.3518 -5.01368
680 2 5.16016 3.89594 5.21967
560 2 -1.24475 3.04708 -0.195707
704 2 -2.58723 -5.67428 2.98571
534 1 -1.1627 -2.78127 -3.36838
558 1 -4.62979 -3.18892 1.52734
565 1 -4.47985 -2.44043 -2.93108
709 1 6.01957 -6.17542 -6.17885
567 2 4.63311 -3.89389 2.98493
540 2 -1.17314 -3.31749 -2.89045
684 2 5.24754 4.25331 2.58203
564 2 -6.19008 -5.87319 4.32599
708 2 0.252532 3.20505 3.73847
538 1 5.41516 0.809518 -4.57266
562 1 3.65281 -1.03649 4.03184
542 1 -1.69257 3.53662 5.25219
566 1 1.87922 -3.69487 -3.98514
569 1 -2.31696 0.457792 0.0612795
713 1 -2.87462 3.35205 -0.948513
571 2 0.467391 -1.97782 -0.639483
544 2 -2.67825 0.786811 -3.6823
688 2 -4.08353 -3.00009 2.45915
568 2 -3.19885 6.33398 5.54774
712 2 1.04848 3.09992 4.22089
548 2 5.59937 3.55752 0.156429
692 2 0.172747 -5.41176 -3.29309
572 2 -6.37976 0.960898 -0.750674
716 2 -5.7335 0.0799188 -2.2401
546 1 2.40685 2.56443 -2.4321
570 1 3.43606 3.41357 5.20735
573 1 1.1232 -0.659761 5.94843
717 1 -5.05471 -0.398938 2.65651
575 2 3.23563 1.1983 5.86624
552 2 -3.12202 6.03914 -1.1844
696 2 -6.14039 -0.00851349 -6.64813
576 2 2.99416 -5.85891 -0.516418
720 2 -1.24168 0.17089 4.0632
550 1 5.72973 -1.59612 -1.17005
574 1 -0.0931368 -0.456974 4.9045
793 1 -4.64553 -4.52425 -5.39669
817 1 0.924834 -0.442096 4.28361
797 1 2.74241 2.02677 -1.80236
821 1 -5.15729 5.32766 0.388836
651 2 -4.42701 2.22969 6.64327
795 2 -5.9226 3.26369 -3.08994
675 2 4.84425 -3.57842 3.04144
819 2 -1.37994 1.2966 -0.686305
796 2 -3.32278 3.60414 -4.75128
650 1 -4.89374 -2.30519 1.38825
794 1 0.935801 -4.13361 4.68014
801 1 4.40965 -2.91437 3.23676
825 1 5.78617 -5.68447 -2.13856
655 2 2.44386 3.49019 -2.97473
799 2 5.59595 0.388549 5.14994
679 2 5.54853 5.43588 1.78129
823 2 1.74814 2.49642 3.1741
659 2 -0.290434 -0.0698346 -4.03952
803 2 2.82411 4.71366 3.99397
683 2 -4.48204 1.69508 -5.79633
827 2 5.99518 -5.71783 5.14119
800 2 -1.6213 -3.88307 -5.49451
654 1 0.65794 1.05852 -5.90288
798 1 -1.77142 -5.64532 3.92794
805 1 -4.65605 -5.72472 -1.78422
829 1 2.1312 -5.15965 -5.57328
663 2 2.56481 -2.88101 5.28964
807 2 1.63578 3.79807 5.3708
687 2 -2.76793 2.61953 5.87363
831 2 1.75824 -4.47519 -5.58692
804 2 -2.89714 6.20173 -1.16205
658 1 2.48278 0.319966 2.42611
802 1 1.28088 4.84751 2.37692
662 1 2.83945 3.42475 5.13431
806 1 3.62015 1.57831 -6.05077
809 1 6.04543 2.3996 -2.68448
833 1 2.58081 5.93627 1.41329
667 2 -6.68053 3.30552 6.54416
811 2 4.22506 3.58717 -4.4932
691 2 -5.33167 -3.02431 3.23876
835 2 1.4254 2.66978 -6.09695
808 2 1.65264 1.66798 0.932322
812 2 -1.33545 1.31359 -0.562193
666 1 5.58305 2.36327 0.835247
810 1 -5.67171 -4.5053 -0.243314
813 1 3.23347 -4.71021 2.62379
837 1 -2.44545 -3.26075 -2.44417
671 2 0.905075 -0.809468 4.50737
815 2 -3.42495 -0.642391 -1.62865
695 2 -3.94587 -0.507511 -5.07839
839 2 -1.49555 2.31188 1.36162
816 2 -4.44478 2.59813 -0.460044
670 1 -6.1837 1.37508 0.0411159
814 1 -0.00109726 4.75864 0.308961
841 1 1.69611 2.1273 -4.40719
845 1 -4.48558 1.45197 1.25433
699 2 -0.625943 3.01834 6.24229
843 2 2.14734 -4.14366 5.97214
820 2 1.77827 5.82323 -0.0885736
844 2 -4.30202 -4.41314 4.09387
674 1 3.26768 -6.26099 -3.01138
818 1 3.71913 -1.87001 -4.47787
698 1 -5.46582 -3.57285 3.80484
842 1 -6.0001 3.75152 -5.38124
849 1 -1.01083 5.31626 -3.16308
703 2 -3.05351 2.06354 1.22178
847 2 -0.0262489 -5.53406 -6.03105
707 2 -5.4979 3.72775 6.2972
851 2 -3.9291 -4.14882 0.935025
824 2 -4.53072 -0.709779 -5.80626
848 2 0.0457482 -5.44756 6.71961
678 1 -0.316307 -3.58562 2.31464
822 1 0.445328 -0.0909601 2.27092
702 1 -3.97814 -5.71642 -0.152179
846 1 -4.32726 5.19662 4.03544
853 1 2.24904 -5.02336 3.83487
711 2 -1.30895 -1.98032 -1.78675
855 2 -6.5749 -2.25712 -4.45914
828 2 5.13856 -5.7086 -2.96634
852 2 2.40551 -2.05851 2.82736
682 1 -2.73278 5.7095 0.407338
826 1 6.09519 -1.08805 2.28942
706 1 -0.771501 4.29242 -1.67951
850 1 0.864384 -1.17824 2.98948
686 1 2.82582 -0.0211758 -3.06943
830 1 2.46613 -3.85406 2.79294
710 1 -0.115665 -3.07055 -2.02824
854 1 -1.77412 -0.881993 6.04822
857 1 -3.2145 -6.00784 2.71802
715 2 -4.6453 4.08591 3.24884
859 2 2.87736 2.3623 5.73996
832 2 1.61176 -5.73768 -2.27143
856 2 2.84645 -0.580385 -6.31081
836 2 0.824314 1.35535 -5.67196
860 2 0.0543986 3.98809 4.16606
690 1 4.15277 4.03333 5.64493
834 1 -4.11524 -3.64824 2.57403
714 1 3.86261 3.05135 -3.63871
858 1 -1.87776 -0.47014 -3.28401
861 1 5.25825 -4.21798 3.12414
719 2 -0.7725 0.553841 -3.79801
863 2 -0.916623 -1.7825 5.69044
840 2 4.41348 2.81999 3.26896
864 2 3.70219 -1.83203 2.55048
694 1 -2.18525 -4.56444 -3.98252
838 1 -5.17698 0.329984 -4.68444
718 1 0.307813 -5.02717 2.58197
862 1 1.5741 -5.39272 0.349757
