ITEM: TIMESTEP
0
ITEM: NUMBER OF ATOMS
864
ITEM: BOX BOUNDS pp pp pp
0.0000000000000000e+00 3.2219999999999999e+01
0.0000000000000000e+00 3.2219999999999999e+01
0.0000000000000000e+00 3.2219999999999999e+01
ITEM: ATOMS id type vx vy vz
1 1 -0.121904 -0.472199 -1.36208
145 1 0.449739 -0.558588 1.29089
25 1 -0.445221 -0.0211449 0.980752
169 1 0.511954 -0.313354 0.170925
5 1 -1.314 0.500889 -0.462381
149 1 -0.986341 0.167355 -0.763341
29 1 0.307564 0.624804 -0.236415
173 1 0.914846 -0.246357 -0.503704
3 2 -0.101298 -0.00212745 0.832416
27 2 1.44708 1.46754 -1.29975
4 2 1.24864 1.15836 0.768972
148 2 0.64853 -1.36285 0.871469
2 1 -0.628897 -1.27706 -0.0178223
9 1 -0.145681 0.685293 -0.984821
153 1 0.317891 0.410028 -0.0885218
33 1 0.749791 0.357976 -0.491322
177 1 -1.0005 0.459405 0.187356
7 2 0.32798 1.01942 0.17276
31 2 1.16822 -0.727291 0.253903
11 2 -0.152178 -0.910042 -0.866473
35 2 -0.791008 -0.551593 1.40315
8 2 -0.987639 -0.885859 1.2489
152 2 -0.941479 -0.265247 -1.30633
6 1 1.05796 0.331394 1.18625
13 1 0.457554 -0.935211 -0.0956458
157 1 -1.01594 -1.26685 0.68214
37 1 -1.09126 -0.357854 0.574158
181 1 0.921772 1.24233 0.105468
15 2 -1.45022 0.843853 1.28615
39 2 1.26615 0.444074 0.538413
12 2 1.17465 0.829798 -0.857316
156 2 -1.52622 0.170562 0.0552492
10 1 -1.09928 -0.534495 -0.15657
14 1 0.205669 0.528139 0.677483
17 1 -0.114027 0.18298 1.19204
161 1 0.404203 -0.730733 0.450341
41 1 0.957445 1.0169 0.586571
185 1 0.533906 -1.33332 -0.982659
19 2 0.927834 -0.813459 -0.951151
43 2 -0.260805 0.422388 0.851044
16 2 1.433 -1.07875 0.00855705
160 2 -0.410878 1.31618 -0.708063
20 2 1.20417 1.45261 0.145444
164 2 -0.756951 0.326075 -0.621753
18 1 0.0118273 -0.627747 -0.739069
21 1 1.361 1.05278 1.00677
165 1 1.1575 0.150041 -0.270822
45 1 0.723957 0.580071 -0.938528
189 1 -0.834401 0.545192 -1.39383
23 2 0.0940959 0.816428 -0.607774
47 2 -1.00164 0.954403 -1.16452
24 2 0.0272402 -1.07874 0.184974
168 2 0.563671 1.2094 1.22674
22 1 -0.541729 0.730715 0.08754
49 1 -1.06123 -0.0776644 1.17572
193 1 0.71317 -1.34646 -0.542767
53 1 0.383264 0.475589 0.324244
197 1 0.366082 0.383887 0.577919
51 2 1.48814 -1.51389 0.750817
28 2 0.444454 0.862374 -0.548553
172 2 0.649939 1.03673 -0.700599
52 2 1.02814 0.925125 -0.767142
196 2 1.40191 -0.849082 -0.790003
26 1 -0.269929 0.475303 1.11918
50 1 1.31679 0.636974 -0.304004
57 1 -0.868798 -0.207141 -0.0333661
201 1 -1.07832 1.32715 -0.9092
55 2 -0.68611 -0.710258 0.770096
59 2 1.19164 0.660284 -1.43041
32 2 0.296805 -0.0586189 -0.148486
176 2 0.673107 1.31537 0.794561
56 2 1.11015 -0.960091 0.0243384
200 2 1.33928 -1.51251 -0.427463
30 1 0.899955 -1.08702 -1.01769
54 1 0.183408 -0.860426 1.21011
61 1 0.984107 0.7031 1.20493
205 1 0.444149 0.790585 0.146532
63 2 0.463133 -1.36411 0.941183
36 2 1.00239 -0.171137 -0.377413
180 2 0.858452 0.439467 -0.902065
60 2 0.0662243 0.533042 0.156908
204 2 0.357999 0.924534 1.46746
34 1 0.474651 0.530328 1.04346
58 1 1.11461 -0.526821 -0.116467
38 1 -0.917106 0.668986 -0.387344
62 1 -1.25543 1.1574 -0.753642
65 1 1.2844 0.102762 1.08026
209 1 -1.24534 -0.314074 -0.719994
67 2 -0.138923 -0.044451 0.854102
40 2 -1.30236 -0.913848 -1.00138
184 2 -1.25924 0.358041 -1.43434
64 2 0.00545898 0.681187 0.296348
208 2 1.13932 -0.0998262 0.393315
44 2 -0.963844 0.816213 -1.18437
188 2 1.31686 -1.40638 -1.09616
68 2 -0.00807695 1.18067 -1.34827
212 2 -1.48412 -0.484413 -0.386662
42 1 1.22224 0.786827 -1.3594
66 1 -0.828212 0.864472 0.377579
69 1 0.614669 -0.45185 -1.29249
213 1 1.09202 1.04065 -1.00333
71 2 -1.52538 -0.857959 -1.03313
48 2 1.01476 0.900631 0.996338
192 2 -0.821325 0.625498 0.632004
72 2 -0.0291769 -0.810347 -0.327847
216 2 -0.493592 0.403596 1.17682
46 1 -0.647957 0.682205 0.374694
70 1 -1.29953 -0.105058 0.40829
289 1 0.961464 1.29585 -0.0874545
313 1 -1.23673 -1.22867 0.485325
293 1 1.13064 -0.0918324 1.28406
317 1 -0.235847 -1.27743 -0.57582
147 2 0.0236367 -0.842306 0.611479
291 2 -0.492191 -0.363678 1.15202
171 2 -1.39937 1.2494 -1.33293
315 2 0.946481 -0.527132 -0.929027
292 2 -0.954438 0.819692 -0.472447
146 1 -1.11652 1.23706 1.1287
290 1 -0.326503 -0.257169 -0.0431355
297 1 -0.475262 -0.43606 0.645187
321 1 -0.513927 -0.0422131 0.0296777
151 2 1.08474 0.617738 0.923271
295 2 1.48028 0.12365 -1.05132
175 2 1.41311 -0.962937 0.824026
319 2 0.626202 0.328612 -0.534612
155 2 0.187816 1.27013 0.523385
299 2 0.075147 -1.50035 0.355903
179 2 0.115138 -1.21109 0.958129
323 2 -0.263332 0.506025 -0.963855
296 2 0.329486 -1.02634 -0.875835
150 1 -0.759866 0.450291 1.16066
294 1 -0.456063 -0.0712233 0.126002
301 1 0.426663 1.18214 0.269605
325 1 -0.259514 -1.06227 0.122138
159 2 -0.957851 1.21714 0.639738
303 2 -0.252855 0.280102 -1.13045
183 2 -1.49043 -0.119876 0.858536
327 2 -0.928903 1.35142 -1.18575
300 2 -1.03166 0.991162 -0.473564
154 1 0.578584 1.25986 0.479883
298 1 0.979511 -0.871713 -0.707551
158 1 -0.317402 1.35747 1.30739
302 1 0.267812 -0.451565 0.689138
305 1 -1.32318 0.329649 -0.122119
329 1 -0.535647 -0.744508 -1.2421
163 2 0.248787 -1.5042 -0.579678
307 2 -0.191429 -0.935246 1.11263
187 2 1.32669 -0.389631 -0.328096
331 2 1.11464 -1.44505 -0.472618
304 2 -0.292131 -0.161699 0.159576
308 2 0.775942 -0.0896671 0.898716
162 1 -0.177312 -1.22661 -1.29574
306 1 0.651868 -0.257871 -0.626899
309 1 -0.957795 0.673289 -0.936451
333 1 -1.08133 1.21228 -0.512587
167 2 0.41194 -1.45367 0.513465
311 2 -0.812238 1.35964 0.0363276
191 2 0.927709 0.129419 -1.36234
335 2 0.257079 1.06217 1.36619
312 2 -0.513055 -1.434 -0.177058
166 1 -0.180975 -1.12269 -0.768291
310 1 1.25699 -1.01924 0.148689
337 1 -0.966818 0.36743 -1.3518
341 1 -0.0467773 0.956979 -0.371472
195 2 0.917559 -0.229805 -1.45339
339 2 0.524009 0.351008 -1.07733
316 2 1.30495 -1.02711 -1.51606
340 2 0.621123 0.0924468 0.437274
170 1 0.845536 0.789529 -0.790246
314 1 -0.675636 0.727874 -0.0090428
194 1 -0.201084 0.0313229 -0.0453491
338 1 0.936102 1.04876 0.787272
345 1 -0.660332 0.101136 -1.03654
199 2 1.30557 0.373536 0.595318
343 2 -1.39225 -0.803861 -0.754462
203 2 0.41803 0.592946 0.722755
347 2 1.02792 0.193908 0.265885
320 2 0.874579 0.914139 0.0344625
344 2 -0.558966 -0.89309 1.32215
174 1 -1.02307 -0.520152 -0.126464
318 1 0.468337 0.929643 -0.167023
198 1 -0.419673 0.544322 0.803338
342 1 -0.0630153 -0.093525 0.863449
349 1 -1.16466 -0.76062 -0.167454
207 2 -1.4698 -0.0234526 1.13693
351 2 1.23107 0.765592 -0.778305
324 2 1.11159 -1.1072 -1.02193
348 2 -0.301113 0.868954 0.594053
178 1 -0.496227 0.349198 0.520824
322 1 1.19658 1.02478 1.21927
202 1 -1.26383 0.129622 1.27237
346 1 -1.02376 -1.00451 1.19458
182 1 0.845198 0.710965 -1.13769
326 1 -0.785243 -0.0536075 -0.891824
206 1 -0.0107276 -1.34297 -0.599174
350 1 -0.00430531 0.0933965 0.619375
353 1 -0.998555 -0.521792 0.322977
211 2 -0.340057 -0.0555228 0.20754
355 2 1.44421 -1.26081 1.26132
328 2 -1.34503 -0.558234 -0.782611
352 2 0.248408 1.24637 -0.52272
332 2 0.93288 -1.13048 -0.0537954
356 2 -0.185716 0.844765 1.41901
186 1 -1.01246 1.16771 -1.19621
330 1 0.449226 -0.765447 -0.0159949
210 1 -1.09157 0.0676268 -0.875212
354 1 -1.13059 0.0277157 0.988639
357 1 0.196253 -0.781043 1.31153
215 2 0.361026 0.115041 0.177249
359 2 -0.854806 0.304954 0.0844806
336 2 -0.968768 0.123215 0.762541
360 2 -0.871999 0.145145 1.49701
190 1 -1.02619 0.307593 -0.863363
334 1 -1.19574 0.940036 0.755072
214 1 -1.33978 -1.09385 -1.00519
358 1 -1.09106 0.220327 1.08527
433 1 1.17112 -0.766948 -0.0346722
577 1 0.754939 -0.00626019 -1.09487
457 1 -0.0675756 -1.06534 -1.12248
601 1 -1.38576 -0.358929 -0.676445
437 1 0.0318445 -0.523627 0.318017
581 1 1.19113 -0.788538 -1.34045
461 1 -0.324002 -0.254461 0.631834
605 1 0.575535 0.464127 1.06443
435 2 -0.94019 0.1217 -0.373801
459 2 0.93051 -1.43677 -1.24552
436 2 1.48025 -0.482735 0.457701
580 2 -0.491301 -0.609968 -0.850174
434 1 0.0971018 0.39703 0.0575471
441 1 0.548742 -1.41443 0.617461
585 1 1.24499 -0.816823 -0.270771
465 1 0.0256175 1.32138 0.207707
609 1 -1.24967 -0.178046 1.28887
439 2 -1.19354 1.02492 1.5175
463 2 1.17286 1.23099 -0.612289
443 2 0.154752 -1.16265 0.401821
467 2 -0.265122 0.820452 0.137491
440 2 1.05446 -0.622365 0.556872
584 2 -0.424547 -0.417855 -0.44643
438 1 0.98517 -1.05677 -0.00615074
445 1 0.0030862 1.00338 0.397506
589 1 -0.824024 1.19172 -1.35023
469 1 -1.28046 0.802695 -0.912497
613 1 0.212028 0.893589 -0.732607
447 2 -0.0799025 0.876654 -0.713653
471 2 0.0866257 -0.0968983 0.962806
444 2 0.502248 -0.589814 0.450014
588 2 0.380454 1.35503 -1.40598
442 1 -0.102719 -0.341958 -1.31131
446 1 -0.919451 0.492615 0.600073
449 1 0.837783 -0.60199 0.539611
593 1 0.904595 1.22523 1.36817
473 1 -1.33201 0.436011 -0.628679
617 1 0.314546 0.248463 0.309325
451 2 0.814579 -1.25954 1.32712
475 2 -1.34281 0.204892 -0.565912
448 2 -1.29519 1.02078 -1.2481
592 2 0.0213524 0.284365 0.60365
452 2 -0.0684598 -1.36302 1.06526
596 2 -0.916358 -0.602961 1.40781
450 1 0.628795 -1.25909 -0.640124
453 1 -0.99739 -0.560775 0.977463
597 1 1.1327 0.863722 -1.02147
477 1 -1.41438 0.650367 0.58839
621 1 0.607108 -1.41525 0.968856
455 2 0.714403 -0.78355 0.136453
479 2 -0.363796 -0.802135 0.895972
456 2 -0.941755 1.18883 -0.978463
600 2 -0.829297 0.398224 -0.962913
454 1 -1.40266 -1.37924 0.796086
481 1 -0.653756 1.32089 0.30013
625 1 0.469875 -1.26001 0.62171
485 1 -0.629285 0.596003 0.570337
629 1 1.2348 -1.23369 0.185759
483 2 -1.22167 -0.508059 0.441442
460 2 0.67446 -0.267401 -1.02147
604 2 1.34601 -1.0012 -0.893809
484 2 1.42573 1.40463 -0.684426
628 2 1.26736 -0.483601 1.10467
458 1 -0.383693 -0.112554 0.552525
482 1 -1.03361 -1.08295 0.115621
489 1 0.231078 -1.24767 0.643306
633 1 0.229958 -0.449892 0.792371
487 2 -0.593171 -1.22716 1.51572
491 2 0.503011 0.0783664 0.906002
464 2 0.667349 -1.22439 -0.716221
608 2 -1.29231 0.875227 -0.362571
488 2 -0.115443 -0.615194 -0.518731
632 2 1.13714 -0.238556 0.412858
462 1 0.0977774 0.540317 0.751462
486 1 0.743748 -0.313278 -1.35898
493 1 -0.883941 0.326217 1.05422
637 1 -0.197325 -1.25038 -0.0464255
495 2 1.46946 0.578864 1.16439
468 2 1.11262 1.10769 0.192261
612 2 -0.990923 -1.34445 0.0755998
492 2 1.21108 -0.912416 -1.24897
636 2 -1.2098 1.37526 1.26964
466 1 -0.238585 0.353964 -0.648222
490 1 -0.395295 1.08417 -1.09019
470 1 -0.271472 -0.241807 0.287655
494 1 -1.06771 0.229768 -0.00562041
497 1 -1.15254 1.0853 0.985565
641 1 0.365656 -1.17005 -0.787376
499 2 -0.07213 0.790925 -0.605114
472 2 -0.76327 0.526234 1.24792
616 2 -0.104126 1.10443 0.172872
496 2 -0.652089 -0.42727 -0.60734
640 2 -0.83481 -1.05116 -1.39561
476 2 0.13133 0.36748 -0.870822
620 2 0.705168 -0.963997 1.24771
500 2 0.0972992 -0.0656347 0.496146
644 2 0.42552 -1.19933 1.07366
474 1 1.2186 1.14372 -0.761015
498 1 0.937011 -0.480589 0.565015
501 1 0.414657 1.19873 -1.2377
645 1 -1.11328 -0.503848 -0.76983
503 2 0.00631936 -0.0583097 -1.03203
480 2 -0.417879 -0.823132 0.627613
624 2 0.286703 0.387562 -0.795229
504 2 -0.344672 1.41404 -0.566151
648 2 -0.431464 -1.1577 1.44932
478 1 1.31703 -0.854023 -0.479074
502 1 0.378753 0.333769 -0.937558
721 1 -0.24178 -0.096401 0.173634
745 1 -0.600531 -0.988499 1.16198
725 1 0.714601 0.279615 -0.225266
749 1 0.428393 -0.57336 -0.328314
579 2 0.674654 -0.0503273 -0.630576
723 2 0.224596 -0.723167 -0.362781
603 2 0.0485109 0.741853 1.51332
747 2 -1.47329 -0.906985 -1.17405
724 2 -1.32023 -0.166598 -0.0891791
578 1 -0.113416 -0.765439 0.104231
722 1 0.715194 -0.959333 0.87863
729 1 -0.797498 1.37426 0.555323
753 1 -0.232566 0.615296 -0.279964
583 2 0.97304 -1.02535 0.569291
727 2 -0.857372 -0.254362 -0.749076
607 2 -0.114999 0.761708 0.825003
751 2 -0.120713 -1.03263 -0.0460461
587 2 0.339884 0.462373 1.04758
731 2 -1.445 0.261477 -1.04843
611 2 0.456122 -0.632068 -1.39635
755 2 -0.878619 1.35744 -0.301232
728 2 0.219525 -0.839992 -0.0185119
582 1 0.468521 1.21587 0.994424
726 1 -0.434888 -0.12675 0.185736
733 1 -1.25086 -0.526129 0.309803
757 1 0.463295 0.265232 -0.927745
591 2 0.6652 -0.861757 -1.01341
735 2 -0.238064 -0.409479 0.481461
615 2 1.16032 0.2716 -1.14953
759 2 1.23732 -0.689449 0.911529
732 2 1.04626 1.43594 -0.363144
586 1 -1.23204 -0.873164 0.118577
730 1 -0.248342 -1.06892 0.413232
590 1 0.262466 -0.615609 -1.32474
734 1 0.921727 0.493184 -1.04386
737 1 0.704086 0.122772 1.05339
761 1 -0.722747 -0.692822 -1.39392
595 2 -1.53718 1.42931 0.592631
739 2 -1.27059 1.08533 1.39299
619 2 0.191075 1.31188 0.048879
763 2 0.557696 1.09288 0.626888
736 2 -1.44679 0.597768 -0.302071
740 2 -0.442658 -0.80795 0.43468
594 1 0.992428 0.4121 1.09906
738 1 0.319839 -0.474984 -0.532498
741 1 0.264396 0.987844 -0.116109
765 1 -1.04662 -1.22241 -0.71396
599 2 1.26854 1.21062 0.509622
743 2 1.04281 1.23379 0.702417
623 2 -0.0385962 -1.04056 0.312651
767 2 -0.967357 -0.472448 0.0752312
744 2 1.36118 -1.28883 -1.45079
598 1 -0.287303 -0.054394 -0.0967707
742 1 -0.0462691 1.08987 -0.593245
769 1 -0.597537 -1.12263 0.157258
773 1 -0.323588 1.08453 -0.634014
627 2 1.03937 1.23165 1.27607
771 2 -1.0584 -1.46693 -0.424358
748 2 -1.22293 -0.330043 1.01771
772 2 0.499113 1.44435 1.12707
602 1 1.03252 -1.14482 0.0431393
746 1 0.525633 -0.235174 -0.327485
626 1 -0.81991 0.256183 1.12904
770 1 0.10281 1.04835 -0.541895
777 1 -0.582927 0.59311 -0.413649
631 2 0.232478 1.02534 -0.540678
775 2 -0.0996607 0.157909 0.183317
635 2 0.409456 -0.640311 -0.0991258
779 2 -0.0469412 -1.45776 -1.34845
752 2 1.27926 -0.980975 -1.37428
776 2 -0.215353 1.29626 -1.16612
606 1 -0.261819 -0.551745 -1.39653
750 1 -1.04063 -1.34963 -0.514927
630 1 -1.24071 -0.827106 0.678236
774 1 -1.3574 -0.253217 -0.895202
781 1 -0.171346 0.947526 0.507324
639 2 0.145372 -0.74206 1.29967
783 2 -1.4206 -0.00753336 1.17438
756 2 -1.21724 1.02952 -0.304707
780 2 -0.43855 1.34411 0.511893
610 1 -1.24484 -0.247051 -0.964127
754 1 -1.27069 -0.19844 0.459848
634 1 -0.613014 -0.58692 -1.22452
778 1 1.17881 -0.44123 0.626547
614 1 -0.916892 -1.34259 0.0364519
758 1 -0.410415 -0.793 -0.663717
638 1 0.985965 1.10085 -1.05507
782 1 0.749665 1.03143 0.897047
785 1 -1.41243 -0.184963 -0.0431149
643 2 0.965609 -1.28595 1.3471
787 2 -0.0214061 -0.925102 1.37333
760 2 -0.488924 -0.173177 -1.22474
784 2 -0.409577 -1.14013 -1.13005
764 2 -0.144861 0.461117 1.22262
788 2 1.13128 -1.42546 0.494733
618 1 -0.818422 0.0452006 0.572231
762 1 -1.079 1.09003 -0.814595
642 1 -0.972983 0.455373 -0.323202
786 1 0.497362 1.07947 1.19844
789 1 -0.57942 0.67485 0.0623701
647 2 0.999401 1.2288 -0.992388
791 2 1.26578 0.35886 0.16156
768 2 -0.3495 -0.690868 1.37864
792 2 0.50701 0.412198 -0.174544
622 1 1.12256 -1.30056 0.228196
766 1 0.3221 1.09339 -0.370156
646 1 -0.593968 0.00240264 -1.23944
790 1 1.17065 -0.311544 -0.251584
73 1 -1.28191 -1.03506 0.620753
217 1 0.869323 -0.223017 -0.602184
97 1 1.27465 -1.25006 -0.291886
241 1 0.547026 0.562107 -0.168341
77 1 0.106003 -1.33913 -0.588905
221 1 -0.708623 1.25544 -0.935839
101 1 -0.217851 1.30601 -0.242783
245 1 -0.590358 -0.977297 -1.14393
75 2 0.430452 -0.386607 -1.18287
99 2 -0.758991 -0.51671 0.952971
76 2 0.199059 -1.29887 0.101759
220 2 -1.08834 -0.039866 -1.12513
74 1 -0.838032 1.18084 0.836326
81 1 -0.332028 -0.625314 0.922479
225 1 0.921981 -0.846263 1.00804
105 1 -0.642857 -0.481079 0.728135
249 1 -0.370456 0.942754 -1.21019
79 2 -0.874272 1.45482 0.846734
103 2 -0.933319 0.0940205 -0.473066
83 2 -1.00981 0.403277 -1.14879
107 2 0.940465 -1.31394 -0.963763
80 2 1.20036 1.41223 -0.704746
224 2 -0.483512 -0.40829 -0.813133
78 1 -0.0128197 -0.0702035 0.44928
85 1 -0.16389 0.144384 -0.060537
229 1 1.34812 0.313899 -1.37924
109 1 -1.35834 0.848535 -1.22688
253 1 0.980293 1.06125 0.457596
87 2 0.782396 -1.05555 0.748543
111 2 0.180928 1.02118 -0.562522
84 2 -1.35458 -0.00640538 -1.14746
228 2 1.38187 -0.120532 -1.04949
82 1 -0.174105 -0.572314 0.423947
86 1 -0.855432 0.228302 0.590278
89 1 1.23532 -0.843698 -0.724317
233 1 0.777323 0.631202 0.785243
113 1 -0.559394 0.935059 1.18364
257 1 -0.763642 -1.35244 -0.159319
91 2 0.490454 -1.21533 -0.353118
115 2 0.884629 -0.407894 -0.232595
88 2 -0.856371 1.37016 0.529944
232 2 1.48681 0.441365 0.607921
92 2 -0.299566 -0.477111 0.745673
236 2 -0.609725 0.226021 -1.11705
90 1 0.0100441 0.231883 -0.887632
93 1 -0.77768 0.941374 0.81102
237 1 -0.4718 -1.09807 0.976074
117 1 -0.997547 -0.392859 0.82041
261 1 1.17085 0.209496 1.22383
95 2 0.259692 -0.616764 0.46346
119 2 -0.20694 -0.186121 0.0975454
96 2 -0.580302 -0.77468 0.263924
240 2 0.513057 -1.31935 -0.643023
94 1 -0.903513 -0.698176 1.10995
121 1 -0.191066 0.235425 -0.205772
265 1 -1.00441 -0.786221 1.16262
125 1 0.586872 0.415552 0.259925
269 1 0.854375 0.791416 0.105846
123 2 0.253835 1.25694 0.67685
100 2 0.0401479 0.0242351 0.0721536
244 2 1.34433 1.19443 -1.12588
124 2 0.186876 0.658817 1.27581
268 2 -1.14975 1.33563 0.829537
98 1 1.31554 -0.67761 -0.773037
122 1 1.17877 -1.23126 -1.04531
129 1 -1.11319 1.10781 0.932663
273 1 -0.240048 0.995027 0.0807083
127 2 0.448368 -0.241993 0.414505
131 2 -0.747444 -1.00113 0.300879
104 2 -1.5047 0.199467 -0.528748
248 2 1.12135 -1.15486 0.543924
128 2 -1.15741 0.336581 -0.361559
272 2 -0.6438 -0.959918 -0.110899
102 1 -0.818783 -0.406237 0.194352
126 1 1.31377 0.4475 -0.916414
133 1 0.294794 -0.993587 -0.271936
277 1 -0.683104 1.34667 -0.684382
135 2 -1.24366 0.731063 -0.480734
108 2 0.189419 0.847502 -1.22142
252 2 -1.35564 0.474525 -1.43174
132 2 1.26161 0.176825 -1.08869
276 2 0.622558 -0.114099 0.663552
106 1 -0.155295 -1.14045 0.510456
130 1 1.18985 0.0268162 -0.115244
110 1 0.126158 1.07163 1.17089
134 1 -0.496914 0.0227757 -0.758838
137 1 0.296808 -0.790798 -0.0937403
281 1 1.27797 1.24324 -1.38438
139 2 1.00109 -0.84611 0.524794
112 2 1.10017 -1.42869 0.841001
256 2 0.559266 0.118682 0.582822
136 2 -1.18445 -1.14201 0.671354
280 2 0.0446842 0.266313 1.19164
116 2 -0.358362 -0.676467 0.210211
260 2 -0.570341 -0.554302 1.47266
140 2 0.417126 0.599794 0.304222
284 2 -0.746074 0.737625 0.364116
114 1 0.458341 1.08286 -0.705682
138 1 -0.625759 1.00732 -0.760642
141 1 1.31829 0.712331 -0.596557
285 1 1.23951 -0.557056 -0.984753
143 2 -1.29098 -1.15994 0.280612
120 2 0.72772 1.12258 1.26473
264 2 1.29216 -0.101743 -1.43044
144 2 1.49852 -0.408815 -0.508109
288 2 0.795113 -0.108674 0.644136
118 1 -0.772131 -1.09625 0.708119
142 1 0.460398 -0.785655 -0.538675
361 1 -0.343865 -0.575193 -0.307128
385 1 1.24363 -1.32415 -1.08769
365 1 -1.02366 0.693813 -0.730191
389 1 -0.42618 0.499894 -0.371439
219 2 0.0980541 0.46165 1.05312
363 2 0.982552 0.762781 0.615538
243 2 -0.914265 1.12446 -0.659269
387 2 1.205 0.351715 -1.3623
364 2 -0.474614 0.170371 -0.123662
218 1 -1.27432 0.411018 -0.26999
362 1 -0.883924 0.612272 -0.671416
369 1 -0.797886 0.470745 0.194782
393 1 -0.0848072 0.804804 0.898106
223 2 -0.577114 1.12037 0.670222
367 2 -1.08746 -0.567329 1.39134
247 2 -0.671025 0.504344 1.18024
391 2 -1.3365 -0.0445408 -0.656472
227 2 1.40272 0.66138 -1.24365
371 2 1.14073 -0.749687 0.791028
251 2 1.46218 -0.111846 -0.983259
395 2 0.542709 -1.51831 -0.665943
368 2 1.36707 0.425537 -0.946675
222 1 -0.552026 -1.35977 -0.0212289
366 1 -0.700574 -0.801059 1.22485
373 1 -0.735971 1.26085 0.316554
397 1 -1.07564 -1.19535 -0.059448
231 2 -0.529857 -1.10115 0.349589
375 2 0.691162 0.759161 0.570129
255 2 -0.888051 0.907034 -0.822699
399 2 -0.604261 0.851438 1.08893
372 2 1.31052 1.44625 -0.30858
226 1 0.768018 1.20468 0.737726
370 1 0.607425 1.11658 -0.164942
230 1 0.177927 -0.493265 0.521383
374 1 0.609158 -0.581781 1.07554
377 1 0.584153 -0.432155 -0.998054
401 1 1.13088 1.05782 -1.13648
235 2 0.00458769 1.2373 -1.09079
379 2 1.39202 0.125752 0.835502
259 2 -0.947077 -0.106074 -1.25107
403 2 0.492823 -0.916268 0.876641
376 2 0.72286 -1.53097 -0.625073
380 2 1.39186 0.596289 -0.851585
234 1 -0.191214 0.55432 0.687057
378 1 -0.245034 1.26829 -0.743447
381 1 1.06659 -0.339023 0.369854
405 1 -0.819929 -0.052377 0.170331
239 2 0.552104 1.35614 -0.905257
383 2 0.404805 0.238192 -0.244365
263 2 -0.734603 -1.02516 0.755054
407 2 -0.435732 0.0721747 0.201184
384 2 -1.36966 -1.00281 -0.545126
238 1 0.853957 -0.629637 1.13945
382 1 0.849391 1.11551 -1.35437
409 1 -0.818192 1.11727 0.256086
413 1 1.04524 -0.401919 -0.11119
267 2 -0.118957 1.11941 -0.291285
411 2 0.156341 1.21233 -1.26834
388 2 0.639804 0.934577 0.016379
412 2 -0.859566 -0.654018 0.56269
242 1 -0.10036 0.0617705 -1.20799
386 1 -0.676286 1.02965 -0.978404
266 1 -0.0969851 0.729157 -0.873224
410 1 -0.702063 -0.591283 1.12421
417 1 -0.946396 -1.13022 -1.27704
271 2 -1.14544 0.847486 -1.50316
415 2 1.36573 -0.819324 0.792621
275 2 -0.560117 1.02585 -1.09726
419 2 -1.36657 -0.782162 -0.852966
392 2 0.286566 1.13304 0.711719
416 2 0.924374 -1.21195 -1.25305
246 1 -1.16575 0.533967 0.540369
390 1 -0.301732 1.27997 -0.66792
270 1 -0.102971 1.01971 0.133945
414 1 1.15112 -0.662313 1.27689
421 1 -0.397474 0.897751 -0.849701
279 2 -0.418644 -1.53466 1.19959
423 2 -0.887305 1.29242 1.2805
396 2 -0.169678 -0.158184 1.48649
420 2 -1.15267 0.992515 0.993918
250 1 -0.440382 0.0232758 -0.762425
394 1 -0.568275 0.21526 0.00652457
274 1 1.26548 -1.163 0.0175278
418 1 -0.721427 -0.934926 -0.913522
254 1 -0.172747 -0.169332 -0.79182
398 1 0.301188 -0.0368565 0.371285
278 1 0.474975 0.375219 0.628408
422 1 -1.17262 -0.0837685 -0.518873
425 1 0.466926 -0.369495 1.11507
283 2 0.551033 -1.4495 0.667354
427 2 -0.273954 1.33553 -0.784055
400 2 0.562003 0.532055 -1.24356
424 2 -0.862718 1.09374 -0.133998
404 2 -0.0088278 0.720904 -0.980354
428 2 -1.27299 0.249332 -1.49295
258 1 0.205459 -0.200451 0.293581
402 1 0.270126 -0.802665 -0.548256
282 1 -0.214286 -0.447467 -0.503255
426 1 0.511585 -0.908027 -0.0437148
429 1 -0.879633 -0.137257 0.17737
287 2 -0.592111 1.38763 -0.653142
431 2 -1.53052 0.991076 1.11998
408 2 -1.01486 0.580092 0.531182
432 2 1.20361 1.27621 -0.724329
262 1 1.34833 1.0716 0.547958
406 1 -0.0562279 -0.928085 -0.839139
286 1 -0.724465 1.26661 -1.05717
430 1 -0.0343942 -1.1239 1.25834
505 1 0.0263785 0.0988573 -0.0908498
649 1 0.310812 -0.83884 -0.347822
529 1 0.460903 -0.69876 -0.297278
673 1 0.868592 -1.29347 -1.21417
509 1 1.33893 0.0430733 1.25488
653 1 -0.769838 1.01826 0.948513
533 1 1.26337 -0.324789 1.35993
677 1 1.28909 0.357829 -0.159617
507 2 1.16226 -0.609222 -0.459669
531 2 -0.546756 0.639365 -0.379367
508 2 -0.0672579 0.595985 0.117706
652 2 1.07791 1.45929 -0.0576975
506 1 0.297639 -0.837078 1.23986
513 1 1.06232 0.746967 1.36562
657 1 -0.53962 -0.24577 0.947461
537 1 -1.23644 0.73622 0.120386
681 1 1.36515 0.719604 1.12953
511 2 1.33579 0.583877 0.297342
535 2 1.16668 0.763976 -0.581343
515 2 -0.340702 1.25859 1.16645
539 2 0.795856 0.21212 -0.672922
512 2 -0.792682 -1.32194 1.42194
656 2 1.5007 -0.230281 -0.336986
510 1 -0.600388 -1.38675 0.538999
517 1 -0.238384 0.935195 0.65816
661 1 -0.0679854 0.455225 -0.00812398
541 1 0.831666 0.29224 -1.04947
685 1 -0.263433 0.346817 -0.263191
519 2 -0.874238 -1.01333 -1.04048
543 2 -0.262867 -0.802424 -0.925082
516 2 -1.38494 0.480148 -1.16701
660 2 1.22354 -1.16094 -1.23917
514 1 0.874531 0.431059 0.224419
518 1 0.946122 1.30639 0.492888
521 1 -0.807287 -0.59419 -0.0868953
665 1 0.349107 0.95078 -0.85033
545 1 -0.923703 -0.909511 0.236407
689 1 -0.363092 -1.40646 0.157328
523 2 0.324491 0.146972 -1.23654
547 2 1.26913 -1.11177 1.25332
520 2 1.39008 1.05654 0.84287
664 2 1.36933 -1.19672 -0.732514
524 2 -0.97168 -0.17324 0.761555
668 2 1.49907 -0.213471 -0.537926
522 1 0.564291 -0.735493 -1.06967
525 1 -0.944324 0.0508466 0.173063
669 1 1.24809 0.767455 0.971891
549 1 -0.907982 -0.131736 0.47495
693 1 0.12816 1.08284 -1.03613
527 2 0.454244 1.24595 1.38943
551 2 0.239253 -0.620616 -0.449257
528 2 0.809395 -0.231924 -0.599827
672 2 0.878821 -0.740115 0.554442
526 1 -0.46643 -0.53674 1.34314
553 1 0.339231 0.340262 -1.12246
697 1 -0.936862 -0.643125 -1.33771
557 1 1.20825 1.09743 0.316562
701 1 1.22515 -0.864837 -0.0625285
555 2 0.994413 -0.534453 0.663103
532 2 -1.16142 -0.224606 0.794671
676 2 -0.0181531 -0.971116 0.160411
556 2 -1.00838 0.0943305 -1.34398
700 2 0.414553 -0.0830972 -1.15943
530 1 -1.01449 0.634999 0.139413
554 1 0.740534 -1.08604 1.30591
561 1 1.19329 -0.93985 0.416487
705 1 -1.3001 -1.24271 0.0136817
559 2 0.61918 0.877339 -1.34808
563 2 -0.547472 0.754344 -1.35406
536 2 -0.913332 -1.42031 -1.12109
680 2 1.15385 0.871158 1.16715
560 2 -0.278334 0.681348 -0.0437614
704 2 -0.578522 -1.26881 0.667626
534 1 -0.259988 -0.621911 -0.753193
558 1 -1.03525 -0.713063 0.341524
565 1 -1.00172 -0.545697 -0.655409
709 1 1.34602 -1.38087 -1.38163
567 2 1.03599 -0.8707 0.66745
540 2 -0.262321 -0.741814 -0.646325
684 2 1.17339 0.95107 0.577361
564 2 -1.38414 -1.31328 0.967321
708 2 0.0564679 0.716671 0.835948
538 1 1.21087 0.181014 -1.02248
562 1 0.816793 -0.231765 0.901548
542 1 -0.378469 0.790813 1.17443
566 1 0.420207 -0.826199 -0.891105
569 1 -0.518087 0.102365 0.0137025
713 1 -0.642784 0.749541 -0.212094
571 2 0.104512 -0.442255 -0.142993
544 2 -0.598875 0.175936 -0.823388
688 2 -0.913106 -0.67084 0.549883
568 2 -0.715285 1.41632 1.24051
712 2 0.234448 0.693164 0.943819
548 2 1.25206 0.795485 0.0349786
692 2 0.0386275 -1.21011 -0.736356
572 2 -1.42656 0.214863 -0.167856
716 2 -1.28205 0.0178704 -0.500901
546 1 0.538188 0.573424 -0.543835
570 1 0.768326 0.763297 1.1644
573 1 0.251154 -0.147527 1.33011
717 1 -1.13027 -0.0892053 0.594013
575 2 0.723509 0.267948 1.31173
552 2 -0.698106 1.35039 -0.26484
696 2 -1.37303 -0.00190367 -1.48657
576 2 0.669514 -1.31009 -0.115475
720 2 -0.277649 0.0382123 0.908559
550 1 1.28121 -0.356903 -0.261632
574 1 -0.020826 -0.102183 1.09668
793 1 -1.03877 -1.01165 -1.20674
817 1 0.206799 -0.0988557 0.957844
797 1 0.613222 0.4532 -0.40302
821 1 -1.1532 1.1913 0.0869464
651 2 -0.989909 0.498574 1.48548
795 2 -1.32433 0.729784 -0.690931
675 2 1.08321 -0.800158 0.680088
819 2 -0.308564 0.289927 -0.153462
796 2 -0.742995 0.805911 -1.06242
650 1 -1.09427 -0.515456 0.310421
794 1 0.209252 -0.924304 1.04651
801 1 0.986028 -0.651673 0.723762
825 1 1.29383 -1.27109 -0.478196
655 2 0.546463 0.780431 -0.66517
799 2 1.25129 0.0868822 1.15156
679 2 1.24069 1.2155 0.39831
823 2 0.390897 0.558217 0.709751
659 2 -0.064943 -0.0156155 -0.903265
803 2 0.63149 1.05401 0.893079
683 2 -1.00222 0.379031 -1.2961
827 2 1.34056 -1.27855 1.14961
800 2 -0.362534 -0.868281 -1.22861
654 1 0.14712 0.236693 -1.31992
798 1 -0.396101 -1.26233 0.878314
805 1 -1.04112 -1.28009 -0.398964
829 1 0.476551 -1.15373 -1.24622
663 2 0.573509 -0.644214 1.1828
807 2 0.365773 0.849274 1.20095
687 2 -0.618928 0.585746 1.31338
831 2 0.393155 -1.00068 -1.24927
804 2 -0.647821 1.38675 -0.259842
658 1 0.555167 0.0715466 0.542495
802 1 0.286413 1.08394 0.531496
662 1 0.634919 0.765797 1.14807
806 1 0.809491 0.352922 -1.35299
809 1 1.3518 0.536567 -0.600267
833 1 0.577088 1.32739 0.316021
667 2 -1.49381 0.739137 1.46332
811 2 0.944751 0.802116 -1.00471
691 2 -1.1922 -0.676256 0.724208
835 2 0.31873 0.596982 -1.36332
808 2 0.369543 0.372971 0.208474
812 2 -0.298615 0.293727 -0.12571
666 1 1.24841 0.528443 0.186767
810 1 -1.26823 -1.00742 -0.0544066
813 1 0.723026 -1.05324 0.586697
837 1 -0.546819 -0.729125 -0.546532
671 2 0.202381 -0.181003 1.00788
815 2 -0.765842 -0.143643 -0.364176
695 2 -0.882324 -0.113483 -1.13556
839 2 -0.334415 0.516953 0.304466
816 2 -0.993883 0.580959 -0.102869
670 1 -1.38272 0.307478 0.00919378
814 1 -0.000245354 1.06406 0.0690858
841 1 0.379262 0.475678 -0.985477
845 1 -1.00301 0.32467 0.280478
699 2 -0.139965 0.674922 1.39582
843 2 0.480161 -0.926551 1.33541
820 2 0.397634 1.30211 -0.0198057
844 2 -0.961961 -0.986807 0.915417
674 1 0.730676 -1.4 -0.673364
818 1 0.831624 -0.418148 -1.00128
698 1 -1.22219 -0.798913 0.850787
842 1 -1.34166 0.838864 -1.20328
849 1 -0.226029 1.18875 -0.707287
703 2 -0.682785 0.461423 0.273199
847 2 -0.00586944 -1.23745 -1.34858
707 2 -1.22937 0.833551 1.4081
851 2 -0.878574 -0.927703 0.209078
824 2 -1.0131 -0.158711 -1.29832
848 2 0.0102296 -1.21811 1.50255
678 1 -0.0707284 -0.801768 0.51757
822 1 0.0995783 -0.0203393 0.507793
702 1 -0.88954 -1.27823 -0.0340283
846 1 -0.967604 1.162 0.902352
853 1 0.502901 -1.12326 0.857504
711 2 -0.29269 -0.442813 -0.399529
855 2 -1.47019 -0.504708 -0.997094
828 2 1.14902 -1.27648 -0.663293
852 2 0.537888 -0.460296 0.632217
682 1 -0.611068 1.27668 0.0910835
826 1 1.36293 -0.243295 0.51193
706 1 -0.172513 0.959813 -0.375549
850 1 0.193282 -0.263463 0.668467
686 1 0.631872 -0.00473506 -0.686346
830 1 0.551443 -0.861795 0.624519
710 1 -0.0258635 -0.686596 -0.453529
854 1 -0.396705 -0.19722 1.35242
857 1 -0.718783 -1.34339 0.607768
715 2 -1.03872 0.913638 0.726463
859 2 0.643397 0.528226 1.28349
832 2 0.3604 -1.28298 -0.507906
856 2 0.636485 -0.129778 -1.41114
836 2 0.184322 0.303065 -1.26829
860 2 0.0121639 0.891764 0.931559
690 1 0.928589 0.901879 1.26225
834 1 -0.920196 -0.815772 0.57557
714 1 0.863707 0.682302 -0.81364
858 1 -0.419879 -0.105126 -0.734327
861 1 1.17578 -0.943168 0.698579
719 2 -0.172736 0.123843 -0.84926
863 2 -0.204963 -0.39858 1.27242
840 2 0.986885 0.630568 0.730961
864 2 0.827834 -0.409655 0.570304
694 1 -0.488638 -1.02064 -0.890518
838 1 -1.15761 0.0737866 -1.04747
718 1 0.0688291 -1.12411 0.577346
862 1 0.35198 -1.20585 0.0782081
