(written by ASE)

5323 atoms
1 atom types

0.0      44.902000000000001  xlo xhi
0.0      44.902000000000001  ylo yhi
0.0      44.902000000000001  zlo zhi

Masses

     1      107.86819997225152 # Ag

Atoms # atomic

     1   1                       0                       0                       0
     2   1                       0      2.0409999999999999      2.0409999999999999
     3   1      2.0409999999999999                       0      2.0409999999999999
     4   1      2.0409999999999999      2.0409999999999999                       0
     5   1                       0                       0      4.0819999999999999
     6   1                       0      2.0409999999999999      6.1229999999999993
     7   1      2.0409999999999999                       0      6.1229999999999993
     8   1      2.0409999999999999      2.0409999999999999      4.0819999999999999
     9   1                       0                       0      8.1639999999999997
    10   1                       0      2.0409999999999999                  10.205
    11   1      2.0409999999999999                       0                  10.205
    12   1      2.0409999999999999      2.0409999999999999      8.1639999999999997
    13   1                       0                       0      12.245999999999999
    14   1                       0      2.0409999999999999      14.286999999999999
    15   1      2.0409999999999999                       0      14.286999999999999
    16   1      2.0409999999999999      2.0409999999999999      12.245999999999999
    17   1                       0                       0      16.327999999999999
    18   1                       0      2.0409999999999999                  18.369
    19   1      2.0409999999999999                       0                  18.369
    20   1      2.0409999999999999      2.0409999999999999      16.327999999999999
    21   1                       0                       0                   20.41
    22   1                       0      2.0409999999999999      22.451000000000001
    23   1      2.0409999999999999                       0      22.451000000000001
    24   1      2.0409999999999999      2.0409999999999999                   20.41
    25   1                       0                       0      24.491999999999997
    26   1                       0      2.0409999999999999      26.532999999999998
    27   1      2.0409999999999999                       0      26.532999999999998
    28   1      2.0409999999999999      2.0409999999999999      24.491999999999997
    29   1                       0                       0      28.573999999999998
    30   1                       0      2.0409999999999999      30.614999999999998
    31   1      2.0409999999999999                       0      30.614999999999998
    32   1      2.0409999999999999      2.0409999999999999      28.573999999999998
    33   1                       0                       0      32.655999999999999
    34   1                       0      2.0409999999999999      34.696999999999996
    35   1      2.0409999999999999                       0      34.696999999999996
    36   1      2.0409999999999999      2.0409999999999999      32.655999999999999
    37   1                       0                       0                  36.738
    38   1                       0      2.0409999999999999      38.778999999999996
    39   1      2.0409999999999999                       0      38.778999999999996
    40   1      2.0409999999999999      2.0409999999999999                  36.738
    41   1                       0                       0                   40.82
    42   1                       0      2.0409999999999999      42.860999999999997
    43   1      2.0409999999999999                       0      42.860999999999997
    44   1      2.0409999999999999      2.0409999999999999                   40.82
    45   1                       0      4.0819999999999999                       0
    46   1                       0      6.1229999999999993      2.0409999999999999
    47   1      2.0409999999999999      4.0819999999999999      2.0409999999999999
    48   1      2.0409999999999999      6.1229999999999993                       0
    49   1                       0      4.0819999999999999      4.0819999999999999
    50   1                       0      6.1229999999999993      6.1229999999999993
    51   1      2.0409999999999999      4.0819999999999999      6.1229999999999993
    52   1      2.0409999999999999      6.1229999999999993      4.0819999999999999
    53   1                       0      4.0819999999999999      8.1639999999999997
    54   1                       0      6.1229999999999993                  10.205
    55   1      2.0409999999999999      4.0819999999999999                  10.205
    56   1      2.0409999999999999      6.1229999999999993      8.1639999999999997
    57   1                       0      4.0819999999999999      12.245999999999999
    58   1                       0      6.1229999999999993      14.286999999999999
    59   1      2.0409999999999999      4.0819999999999999      14.286999999999999
    60   1      2.0409999999999999      6.1229999999999993      12.245999999999999
    61   1                       0      4.0819999999999999      16.327999999999999
    62   1                       0      6.1229999999999993                  18.369
    63   1      2.0409999999999999      4.0819999999999999                  18.369
    64   1      2.0409999999999999      6.1229999999999993      16.327999999999999
    65   1                       0      4.0819999999999999                   20.41
    66   1                       0      6.1229999999999993      22.451000000000001
    67   1      2.0409999999999999      4.0819999999999999      22.451000000000001
    68   1      2.0409999999999999      6.1229999999999993                   20.41
    69   1                       0      4.0819999999999999      24.491999999999997
    70   1                       0      6.1229999999999993      26.532999999999998
    71   1      2.0409999999999999      4.0819999999999999      26.532999999999998
    72   1      2.0409999999999999      6.1229999999999993      24.491999999999997
    73   1                       0      4.0819999999999999      28.573999999999998
    74   1                       0      6.1229999999999993      30.614999999999998
    75   1      2.0409999999999999      4.0819999999999999      30.614999999999998
    76   1      2.0409999999999999      6.1229999999999993      28.573999999999998
    77   1                       0      4.0819999999999999      32.655999999999999
    78   1                       0      6.1229999999999993      34.696999999999996
    79   1      2.0409999999999999      4.0819999999999999      34.696999999999996
    80   1      2.0409999999999999      6.1229999999999993      32.655999999999999
    81   1                       0      4.0819999999999999                  36.738
    82   1                       0      6.1229999999999993      38.778999999999996
    83   1      2.0409999999999999      4.0819999999999999      38.778999999999996
    84   1      2.0409999999999999      6.1229999999999993                  36.738
    85   1                       0      4.0819999999999999                   40.82
    86   1                       0      6.1229999999999993      42.860999999999997
    87   1      2.0409999999999999      4.0819999999999999      42.860999999999997
    88   1      2.0409999999999999      6.1229999999999993                   40.82
    89   1                       0      8.1639999999999997                       0
    90   1                       0                  10.205      2.0409999999999999
    91   1      2.0409999999999999      8.1639999999999997      2.0409999999999999
    92   1      2.0409999999999999                  10.205                       0
    93   1                       0      8.1639999999999997      4.0819999999999999
    94   1                       0                  10.205      6.1229999999999993
    95   1      2.0409999999999999      8.1639999999999997      6.1229999999999993
    96   1      2.0409999999999999                  10.205      4.0819999999999999
    97   1                       0      8.1639999999999997      8.1639999999999997
    98   1                       0                  10.205                  10.205
    99   1      2.0409999999999999      8.1639999999999997                  10.205
   100   1      2.0409999999999999                  10.205      8.1639999999999997
   101   1                       0      8.1639999999999997      12.245999999999999
   102   1                       0                  10.205      14.286999999999999
   103   1      2.0409999999999999      8.1639999999999997      14.286999999999999
   104   1      2.0409999999999999                  10.205      12.245999999999999
   105   1                       0      8.1639999999999997      16.327999999999999
   106   1                       0                  10.205                  18.369
   107   1      2.0409999999999999      8.1639999999999997                  18.369
   108   1      2.0409999999999999                  10.205      16.327999999999999
   109   1                       0      8.1639999999999997                   20.41
   110   1                       0                  10.205      22.451000000000001
   111   1      2.0409999999999999      8.1639999999999997      22.451000000000001
   112   1      2.0409999999999999                  10.205                   20.41
   113   1                       0      8.1639999999999997      24.491999999999997
   114   1                       0                  10.205      26.532999999999998
   115   1      2.0409999999999999      8.1639999999999997      26.532999999999998
   116   1      2.0409999999999999                  10.205      24.491999999999997
   117   1                       0      8.1639999999999997      28.573999999999998
   118   1                       0                  10.205      30.614999999999998
   119   1      2.0409999999999999      8.1639999999999997      30.614999999999998
   120   1      2.0409999999999999                  10.205      28.573999999999998
   121   1                       0      8.1639999999999997      32.655999999999999
   122   1                       0                  10.205      34.696999999999996
   123   1      2.0409999999999999      8.1639999999999997      34.696999999999996
   124   1      2.0409999999999999                  10.205      32.655999999999999
   125   1                       0      8.1639999999999997                  36.738
   126   1                       0                  10.205      38.778999999999996
   127   1      2.0409999999999999      8.1639999999999997      38.778999999999996
   128   1      2.0409999999999999                  10.205                  36.738
   129   1                       0      8.1639999999999997                   40.82
   130   1                       0                  10.205      42.860999999999997
   131   1      2.0409999999999999      8.1639999999999997      42.860999999999997
   132   1      2.0409999999999999                  10.205                   40.82
   133   1                       0      12.245999999999999                       0
   134   1                       0      14.286999999999999      2.0409999999999999
   135   1      2.0409999999999999      12.245999999999999      2.0409999999999999
   136   1      2.0409999999999999      14.286999999999999                       0
   137   1                       0      12.245999999999999      4.0819999999999999
   138   1                       0      14.286999999999999      6.1229999999999993
   139   1      2.0409999999999999      12.245999999999999      6.1229999999999993
   140   1      2.0409999999999999      14.286999999999999      4.0819999999999999
   141   1                       0      12.245999999999999      8.1639999999999997
   142   1                       0      14.286999999999999                  10.205
   143   1      2.0409999999999999      12.245999999999999                  10.205
   144   1      2.0409999999999999      14.286999999999999      8.1639999999999997
   145   1                       0      12.245999999999999      12.245999999999999
   146   1                       0      14.286999999999999      14.286999999999999
   147   1      2.0409999999999999      12.245999999999999      14.286999999999999
   148   1      2.0409999999999999      14.286999999999999      12.245999999999999
   149   1                       0      12.245999999999999      16.327999999999999
   150   1                       0      14.286999999999999                  18.369
   151   1      2.0409999999999999      12.245999999999999                  18.369
   152   1      2.0409999999999999      14.286999999999999      16.327999999999999
   153   1                       0      12.245999999999999                   20.41
   154   1                       0      14.286999999999999      22.451000000000001
   155   1      2.0409999999999999      12.245999999999999      22.451000000000001
   156   1      2.0409999999999999      14.286999999999999                   20.41
   157   1                       0      12.245999999999999      24.491999999999997
   158   1                       0      14.286999999999999      26.532999999999998
   159   1      2.0409999999999999      12.245999999999999      26.532999999999998
   160   1      2.0409999999999999      14.286999999999999      24.491999999999997
   161   1                       0      12.245999999999999      28.573999999999998
   162   1                       0      14.286999999999999      30.614999999999998
   163   1      2.0409999999999999      12.245999999999999      30.614999999999998
   164   1      2.0409999999999999      14.286999999999999      28.573999999999998
   165   1                       0      12.245999999999999      32.655999999999999
   166   1                       0      14.286999999999999      34.696999999999996
   167   1      2.0409999999999999      12.245999999999999      34.696999999999996
   168   1      2.0409999999999999      14.286999999999999      32.655999999999999
   169   1                       0      12.245999999999999                  36.738
   170   1                       0      14.286999999999999      38.778999999999996
   171   1      2.0409999999999999      12.245999999999999      38.778999999999996
   172   1      2.0409999999999999      14.286999999999999                  36.738
   173   1                       0      12.245999999999999                   40.82
   174   1                       0      14.286999999999999      42.860999999999997
   175   1      2.0409999999999999      12.245999999999999      42.860999999999997
   176   1      2.0409999999999999      14.286999999999999                   40.82
   177   1                       0      16.327999999999999                       0
   178   1                       0                  18.369      2.0409999999999999
   179   1      2.0409999999999999      16.327999999999999      2.0409999999999999
   180   1      2.0409999999999999                  18.369                       0
   181   1                       0      16.327999999999999      4.0819999999999999
   182   1                       0                  18.369      6.1229999999999993
   183   1      2.0409999999999999      16.327999999999999      6.1229999999999993
   184   1      2.0409999999999999                  18.369      4.0819999999999999
   185   1                       0      16.327999999999999      8.1639999999999997
   186   1                       0                  18.369                  10.205
   187   1      2.0409999999999999      16.327999999999999                  10.205
   188   1      2.0409999999999999                  18.369      8.1639999999999997
   189   1                       0      16.327999999999999      12.245999999999999
   190   1                       0                  18.369      14.286999999999999
   191   1      2.0409999999999999      16.327999999999999      14.286999999999999
   192   1      2.0409999999999999                  18.369      12.245999999999999
   193   1                       0      16.327999999999999      16.327999999999999
   194   1                       0                  18.369                  18.369
   195   1      2.0409999999999999      16.327999999999999                  18.369
   196   1      2.0409999999999999                  18.369      16.327999999999999
   197   1                       0      16.327999999999999                   20.41
   198   1                       0                  18.369      22.451000000000001
   199   1      2.0409999999999999      16.327999999999999      22.451000000000001
   200   1      2.0409999999999999                  18.369                   20.41
   201   1                       0      16.327999999999999      24.491999999999997
   202   1                       0                  18.369      26.532999999999998
   203   1      2.0409999999999999      16.327999999999999      26.532999999999998
   204   1      2.0409999999999999                  18.369      24.491999999999997
   205   1                       0      16.327999999999999      28.573999999999998
   206   1                       0                  18.369      30.614999999999998
   207   1      2.0409999999999999      16.327999999999999      30.614999999999998
   208   1      2.0409999999999999                  18.369      28.573999999999998
   209   1                       0      16.327999999999999      32.655999999999999
   210   1                       0                  18.369      34.696999999999996
   211   1      2.0409999999999999      16.327999999999999      34.696999999999996
   212   1      2.0409999999999999                  18.369      32.655999999999999
   213   1                       0      16.327999999999999                  36.738
   214   1                       0                  18.369      38.778999999999996
   215   1      2.0409999999999999      16.327999999999999      38.778999999999996
   216   1      2.0409999999999999                  18.369                  36.738
   217   1                       0      16.327999999999999                   40.82
   218   1                       0                  18.369      42.860999999999997
   219   1      2.0409999999999999      16.327999999999999      42.860999999999997
   220   1      2.0409999999999999                  18.369                   40.82
   221   1                       0                   20.41                       0
   222   1                       0      22.451000000000001      2.0409999999999999
   223   1      2.0409999999999999                   20.41      2.0409999999999999
   224   1      2.0409999999999999      22.451000000000001                       0
   225   1                       0                   20.41      4.0819999999999999
   226   1                       0      22.451000000000001      6.1229999999999993
   227   1      2.0409999999999999                   20.41      6.1229999999999993
   228   1      2.0409999999999999      22.451000000000001      4.0819999999999999
   229   1                       0                   20.41      8.1639999999999997
   230   1                       0      22.451000000000001                  10.205
   231   1      2.0409999999999999                   20.41                  10.205
   232   1      2.0409999999999999      22.451000000000001      8.1639999999999997
   233   1                       0                   20.41      12.245999999999999
   234   1                       0      22.451000000000001      14.286999999999999
   235   1      2.0409999999999999                   20.41      14.286999999999999
   236   1      2.0409999999999999      22.451000000000001      12.245999999999999
   237   1                       0                   20.41      16.327999999999999
   238   1                       0      22.451000000000001                  18.369
   239   1      2.0409999999999999                   20.41                  18.369
   240   1      2.0409999999999999      22.451000000000001      16.327999999999999
   241   1                       0                   20.41                   20.41
   242   1                       0      22.451000000000001      22.451000000000001
   243   1      2.0409999999999999                   20.41      22.451000000000001
   244   1      2.0409999999999999      22.451000000000001                   20.41
   245   1                       0                   20.41      24.491999999999997
   246   1                       0      22.451000000000001      26.532999999999998
   247   1      2.0409999999999999                   20.41      26.532999999999998
   248   1      2.0409999999999999      22.451000000000001      24.491999999999997
   249   1                       0                   20.41      28.573999999999998
   250   1                       0      22.451000000000001      30.614999999999998
   251   1      2.0409999999999999                   20.41      30.614999999999998
   252   1      2.0409999999999999      22.451000000000001      28.573999999999998
   253   1                       0                   20.41      32.655999999999999
   254   1                       0      22.451000000000001      34.696999999999996
   255   1      2.0409999999999999                   20.41      34.696999999999996
   256   1      2.0409999999999999      22.451000000000001      32.655999999999999
   257   1                       0                   20.41                  36.738
   258   1                       0      22.451000000000001      38.778999999999996
   259   1      2.0409999999999999                   20.41      38.778999999999996
   260   1      2.0409999999999999      22.451000000000001                  36.738
   261   1                       0                   20.41                   40.82
   262   1                       0      22.451000000000001      42.860999999999997
   263   1      2.0409999999999999                   20.41      42.860999999999997
   264   1      2.0409999999999999      22.451000000000001                   40.82
   265   1                       0      24.491999999999997                       0
   266   1                       0      26.532999999999998      2.0409999999999999
   267   1      2.0409999999999999      24.491999999999997      2.0409999999999999
   268   1      2.0409999999999999      26.532999999999998                       0
   269   1                       0      24.491999999999997      4.0819999999999999
   270   1                       0      26.532999999999998      6.1229999999999993
   271   1      2.0409999999999999      24.491999999999997      6.1229999999999993
   272   1      2.0409999999999999      26.532999999999998      4.0819999999999999
   273   1                       0      24.491999999999997      8.1639999999999997
   274   1                       0      26.532999999999998                  10.205
   275   1      2.0409999999999999      24.491999999999997                  10.205
   276   1      2.0409999999999999      26.532999999999998      8.1639999999999997
   277   1                       0      24.491999999999997      12.245999999999999
   278   1                       0      26.532999999999998      14.286999999999999
   279   1      2.0409999999999999      24.491999999999997      14.286999999999999
   280   1      2.0409999999999999      26.532999999999998      12.245999999999999
   281   1                       0      24.491999999999997      16.327999999999999
   282   1                       0      26.532999999999998                  18.369
   283   1      2.0409999999999999      24.491999999999997                  18.369
   284   1      2.0409999999999999      26.532999999999998      16.327999999999999
   285   1                       0      24.491999999999997                   20.41
   286   1                       0      26.532999999999998      22.451000000000001
   287   1      2.0409999999999999      24.491999999999997      22.451000000000001
   288   1      2.0409999999999999      26.532999999999998                   20.41
   289   1                       0      24.491999999999997      24.491999999999997
   290   1                       0      26.532999999999998      26.532999999999998
   291   1      2.0409999999999999      24.491999999999997      26.532999999999998
   292   1      2.0409999999999999      26.532999999999998      24.491999999999997
   293   1                       0      24.491999999999997      28.573999999999998
   294   1                       0      26.532999999999998      30.614999999999998
   295   1      2.0409999999999999      24.491999999999997      30.614999999999998
   296   1      2.0409999999999999      26.532999999999998      28.573999999999998
   297   1                       0      24.491999999999997      32.655999999999999
   298   1                       0      26.532999999999998      34.696999999999996
   299   1      2.0409999999999999      24.491999999999997      34.696999999999996
   300   1      2.0409999999999999      26.532999999999998      32.655999999999999
   301   1                       0      24.491999999999997                  36.738
   302   1                       0      26.532999999999998      38.778999999999996
   303   1      2.0409999999999999      24.491999999999997      38.778999999999996
   304   1      2.0409999999999999      26.532999999999998                  36.738
   305   1                       0      24.491999999999997                   40.82
   306   1                       0      26.532999999999998      42.860999999999997
   307   1      2.0409999999999999      24.491999999999997      42.860999999999997
   308   1      2.0409999999999999      26.532999999999998                   40.82
   309   1                       0      28.573999999999998                       0
   310   1                       0      30.614999999999998      2.0409999999999999
   311   1      2.0409999999999999      28.573999999999998      2.0409999999999999
   312   1      2.0409999999999999      30.614999999999998                       0
   313   1                       0      28.573999999999998      4.0819999999999999
   314   1                       0      30.614999999999998      6.1229999999999993
   315   1      2.0409999999999999      28.573999999999998      6.1229999999999993
   316   1      2.0409999999999999      30.614999999999998      4.0819999999999999
   317   1                       0      28.573999999999998      8.1639999999999997
   318   1                       0      30.614999999999998                  10.205
   319   1      2.0409999999999999      28.573999999999998                  10.205
   320   1      2.0409999999999999      30.614999999999998      8.1639999999999997
   321   1                       0      28.573999999999998      12.245999999999999
   322   1                       0      30.614999999999998      14.286999999999999
   323   1      2.0409999999999999      28.573999999999998      14.286999999999999
   324   1      2.0409999999999999      30.614999999999998      12.245999999999999
   325   1                       0      28.573999999999998      16.327999999999999
   326   1                       0      30.614999999999998                  18.369
   327   1      2.0409999999999999      28.573999999999998                  18.369
   328   1      2.0409999999999999      30.614999999999998      16.327999999999999
   329   1                       0      28.573999999999998                   20.41
   330   1                       0      30.614999999999998      22.451000000000001
   331   1      2.0409999999999999      28.573999999999998      22.451000000000001
   332   1      2.0409999999999999      30.614999999999998                   20.41
   333   1                       0      28.573999999999998      24.491999999999997
   334   1                       0      30.614999999999998      26.532999999999998
   335   1      2.0409999999999999      28.573999999999998      26.532999999999998
   336   1      2.0409999999999999      30.614999999999998      24.491999999999997
   337   1                       0      28.573999999999998      28.573999999999998
   338   1                       0      30.614999999999998      30.614999999999998
   339   1      2.0409999999999999      28.573999999999998      30.614999999999998
   340   1      2.0409999999999999      30.614999999999998      28.573999999999998
   341   1                       0      28.573999999999998      32.655999999999999
   342   1                       0      30.614999999999998      34.696999999999996
   343   1      2.0409999999999999      28.573999999999998      34.696999999999996
   344   1      2.0409999999999999      30.614999999999998      32.655999999999999
   345   1                       0      28.573999999999998                  36.738
   346   1                       0      30.614999999999998      38.778999999999996
   347   1      2.0409999999999999      28.573999999999998      38.778999999999996
   348   1      2.0409999999999999      30.614999999999998                  36.738
   349   1                       0      28.573999999999998                   40.82
   350   1                       0      30.614999999999998      42.860999999999997
   351   1      2.0409999999999999      28.573999999999998      42.860999999999997
   352   1      2.0409999999999999      30.614999999999998                   40.82
   353   1                       0      32.655999999999999                       0
   354   1                       0      34.696999999999996      2.0409999999999999
   355   1      2.0409999999999999      32.655999999999999      2.0409999999999999
   356   1      2.0409999999999999      34.696999999999996                       0
   357   1                       0      32.655999999999999      4.0819999999999999
   358   1                       0      34.696999999999996      6.1229999999999993