(written by ASE)

499 atoms
1 atom types

0.0                   20.41  xlo xhi
0.0                   20.41  ylo yhi
0.0                   20.41  zlo zhi

Masses

     1      107.86819997225152 # Ag

Atoms # atomic

     1   1                       0                       0                       0
     2   1                       0      2.0409999999999999      2.0409999999999999
     3   1      2.0409999999999999                       0      2.0409999999999999
     4   1      2.0409999999999999      2.0409999999999999                       0
     5   1                       0                       0      4.0819999999999999
     6   1                       0      2.0409999999999999      6.1229999999999993
     7   1      2.0409999999999999                       0      6.1229999999999993
     8   1      2.0409999999999999      2.0409999999999999      4.0819999999999999
     9   1                       0                       0      8.1639999999999997
    10   1                       0      2.0409999999999999                  10.205
    11   1      2.0409999999999999                       0                  10.205
    12   1      2.0409999999999999      2.0409999999999999      8.1639999999999997
    13   1                       0                       0      12.245999999999999
    14   1                       0      2.0409999999999999      14.286999999999999
    15   1      2.0409999999999999                       0      14.286999999999999
    16   1      2.0409999999999999      2.0409999999999999      12.245999999999999
    17   1                       0                       0      16.327999999999999
    18   1                       0      2.0409999999999999                  18.369
    19   1      2.0409999999999999                       0                  18.369
    20   1      2.0409999999999999      2.0409999999999999      16.327999999999999
    21   1                       0      4.0819999999999999                       0
    22   1                       0      6.1229999999999993      2.0409999999999999
    23   1      2.0409999999999999      4.0819999999999999      2.0409999999999999
    24   1      2.0409999999999999      6.1229999999999993                       0
    25   1                       0      4.0819999999999999      4.0819999999999999
    26   1                       0      6.1229999999999993      6.1229999999999993
    27   1      2.0409999999999999      4.0819999999999999      6.1229999999999993
    28   1      2.0409999999999999      6.1229999999999993      4.0819999999999999
    29   1                       0      4.0819999999999999      8.1639999999999997
    30   1                       0      6.1229999999999993                  10.205
    31   1      2.0409999999999999      4.0819999999999999                  10.205
    32   1      2.0409999999999999      6.1229999999999993      8.1639999999999997
    33   1                       0      4.0819999999999999      12.245999999999999
    34   1                       0      6.1229999999999993      14.286999999999999
    35   1      2.0409999999999999      4.0819999999999999      14.286999999999999
    36   1      2.0409999999999999      6.1229999999999993      12.245999999999999
    37   1                       0      4.0819999999999999      16.327999999999999
    38   1                       0      6.1229999999999993                  18.369
    39   1      2.0409999999999999      4.0819999999999999                  18.369
    40   1      2.0409999999999999      6.1229999999999993      16.327999999999999
    41   1                       0      8.1639999999999997                       0
    42   1                       0                  10.205      2.0409999999999999
    43   1      2.0409999999999999      8.1639999999999997      2.0409999999999999
    44   1      2.0409999999999999                  10.205                       0
    45   1                       0      8.1639999999999997      4.0819999999999999
    46   1                       0                  10.205      6.1229999999999993
    47   1      2.0409999999999999      8.1639999999999997      6.1229999999999993
    48   1      2.0409999999999999                  10.205      4.0819999999999999
    49   1                       0      8.1639999999999997      8.1639999999999997
    50   1                       0                  10.205                  10.205
    51   1      2.0409999999999999      8.1639999999999997                  10.205
    52   1      2.0409999999999999                  10.205      8.1639999999999997
    53   1                       0      8.1639999999999997      12.245999999999999
    54   1                       0                  10.205      14.286999999999999
    55   1      2.0409999999999999      8.1639999999999997      14.286999999999999
    56   1      2.0409999999999999                  10.205      12.245999999999999
    57   1                       0      8.1639999999999997      16.327999999999999
    58   1                       0                  10.205                  18.369
    59   1      2.0409999999999999      8.1639999999999997                  18.369
    60   1      2.0409999999999999                  10.205      16.327999999999999
    61   1                       0      12.245999999999999                       0
    62   1                       0      14.286999999999999      2.0409999999999999
    63   1      2.0409999999999999      12.245999999999999      2.0409999999999999
    64   1      2.0409999999999999      14.286999999999999                       0
    65   1                       0      12.245999999999999      4.0819999999999999
    66   1                       0      14.286999999999999      6.1229999999999993
    67   1      2.0409999999999999      12.245999999999999      6.1229999999999993
    68   1      2.0409999999999999      14.286999999999999      4.0819999999999999
    69   1                       0      12.245999999999999      8.1639999999999997
    70   1                       0      14.286999999999999                  10.205
    71   1      2.0409999999999999      12.245999999999999                  10.205
    72   1      2.0409999999999999      14.286999999999999      8.1639999999999997
    73   1                       0      12.245999999999999      12.245999999999999
    74   1                       0      14.286999999999999      14.286999999999999
    75   1      2.0409999999999999      12.245999999999999      14.286999999999999
    76   1      2.0409999999999999      14.286999999999999      12.245999999999999
    77   1                       0      12.245999999999999      16.327999999999999
    78   1                       0      14.286999999999999                  18.369
    79   1      2.0409999999999999      12.245999999999999                  18.369
    80   1      2.0409999999999999      14.286999999999999      16.327999999999999
    81   1                       0      16.327999999999999                       0
    82   1                       0                  18.369      2.0409999999999999
    83   1      2.0409999999999999      16.327999999999999      2.0409999999999999
    84   1      2.0409999999999999                  18.369                       0
    85   1                       0      16.327999999999999      4.0819999999999999
    86   1                       0                  18.369      6.1229999999999993
    87   1      2.0409999999999999      16.327999999999999      6.1229999999999993
    88   1      2.0409999999999999                  18.369      4.0819999999999999
    89   1                       0      16.327999999999999      8.1639999999999997
    90   1                       0                  18.369                  10.205
    91   1      2.0409999999999999      16.327999999999999                  10.205
    92   1      2.0409999999999999                  18.369      8.1639999999999997
    93   1                       0      16.327999999999999      12.245999999999999
    94   1                       0                  18.369      14.286999999999999
    95   1      2.0409999999999999      16.327999999999999      14.286999999999999
    96   1      2.0409999999999999                  18.369      12.245999999999999
    97   1                       0      16.327999999999999      16.327999999999999
    98   1                       0                  18.369                  18.369
    99   1      2.0409999999999999      16.327999999999999                  18.369
   100   1      2.0409999999999999                  18.369      16.327999999999999
   101   1      4.0819999999999999                       0                       0
   102   1      4.0819999999999999      2.0409999999999999      2.0409999999999999
   103   1      6.1229999999999993                       0      2.0409999999999999
   104   1      6.1229999999999993      2.0409999999999999                       0
   105   1      4.0819999999999999                       0      4.0819999999999999
   106   1      4.0819999999999999      2.0409999999999999      6.1229999999999993
   107   1      6.1229999999999993                       0      6.1229999999999993
   108   1      6.1229999999999993      2.0409999999999999      4.0819999999999999
   109   1      4.0819999999999999                       0      8.1639999999999997
   110   1      4.0819999999999999      2.0409999999999999                  10.205
   111   1      6.1229999999999993                       0                  10.205
   112   1      6.1229999999999993      2.0409999999999999      8.1639999999999997
   113   1      4.0819999999999999                       0      12.245999999999999
   114   1      4.0819999999999999      2.0409999999999999      14.286999999999999
   115   1      6.1229999999999993                       0      14.286999999999999
   116   1      6.1229999999999993      2.0409999999999999      12.245999999999999
   117   1      4.0819999999999999                       0      16.327999999999999
   118   1      4.0819999999999999      2.0409999999999999                  18.369
   119   1      6.1229999999999993                       0                  18.369
   120   1      6.1229999999999993      2.0409999999999999      16.327999999999999
   121   1      4.0819999999999999      4.0819999999999999                       0
   122   1      4.0819999999999999      6.1229999999999993      2.0409999999999999
   123   1      6.1229999999999993      4.0819999999999999      2.0409999999999999
   124   1      6.1229999999999993      6.1229999999999993                       0
   125   1      4.0819999999999999      4.0819999999999999      4.0819999999999999
   126   1      4.0819999999999999      6.1229999999999993      6.1229999999999993
   127   1      6.1229999999999993      4.0819999999999999      6.1229999999999993
   128   1      6.1229999999999993      6.1229999999999993      4.0819999999999999
   129   1      4.0819999999999999      4.0819999999999999      8.1639999999999997
   130   1      4.0819999999999999      6.1229999999999993                  10.205
   131   1      6.1229999999999993      4.0819999999999999                  10.205
   132   1      6.1229999999999993      6.1229999999999993      8.1639999999999997
   133   1      4.0819999999999999      4.0819999999999999      12.245999999999999
   134   1      4.0819999999999999      6.1229999999999993      14.286999999999999
   135   1      6.1229999999999993      4.0819999999999999      14.286999999999999
   136   1      6.1229999999999993      6.1229999999999993      12.245999999999999
   137   1      4.0819999999999999      4.0819999999999999      16.327999999999999
   138   1      4.0819999999999999      6.1229999999999993                  18.369
   139   1      6.1229999999999993      4.0819999999999999                  18.369
   140   1      6.1229999999999993      6.1229999999999993      16.327999999999999
   141   1      4.0819999999999999      8.1639999999999997                       0
   142   1      4.0819999999999999                  10.205      2.0409999999999999
   143   1      6.1229999999999993      8.1639999999999997      2.0409999999999999
   144   1      6.1229999999999993                  10.205                       0
   145   1      4.0819999999999999      8.1639999999999997      4.0819999999999999
   146   1      4.0819999999999999                  10.205      6.1229999999999993
   147   1      6.1229999999999993      8.1639999999999997      6.1229999999999993
   148   1      6.1229999999999993                  10.205      4.0819999999999999
   149   1      4.0819999999999999      8.1639999999999997      8.1639999999999997
   150   1      4.0819999999999999                  10.205                  10.205
   151   1      6.1229999999999993      8.1639999999999997                  10.205
   152   1      6.1229999999999993                  10.205      8.1639999999999997
   153   1      4.0819999999999999      8.1639999999999997      12.245999999999999
   154   1      4.0819999999999999                  10.205      14.286999999999999
   155   1      6.1229999999999993      8.1639999999999997      14.286999999999999
   156   1      6.1229999999999993                  10.205      12.245999999999999
   157   1      4.0819999999999999      8.1639999999999997      16.327999999999999
   158   1      4.0819999999999999                  10.205                  18.369
   159   1      6.1229999999999993      8.1639999999999997                  18.369
   160   1      6.1229999999999993                  10.205      16.327999999999999
   161   1      4.0819999999999999      12.245999999999999                       0
   162   1      4.0819999999999999      14.286999999999999      2.0409999999999999
   163   1      6.1229999999999993      12.245999999999999      2.0409999999999999
   164   1      6.1229999999999993      14.286999999999999                       0
   165   1      4.0819999999999999      12.245999999999999      4.0819999999999999
   166   1      4.0819999999999999      14.286999999999999      6.1229999999999993
   167   1      6.1229999999999993      12.245999999999999      6.1229999999999993
   168   1      6.1229999999999993      14.286999999999999      4.0819999999999999
   169   1      4.0819999999999999      12.245999999999999      8.1639999999999997
   170   1      4.0819999999999999      14.286999999999999                  10.205
   171   1      6.1229999999999993      12.245999999999999                  10.205
   172   1      6.1229999999999993      14.286999999999999      8.1639999999999997
   173   1      4.0819999999999999      12.245999999999999      12.245999999999999
   174   1      4.0819999999999999      14.286999999999999      14.286999999999999
   175   1      6.1229999999999993      12.245999999999999      14.286999999999999
   176   1      6.1229999999999993      14.286999999999999      12.245999999999999
   177   1      4.0819999999999999      12.245999999999999      16.327999999999999
   178   1      4.0819999999999999      14.286999999999999                  18.369
   179   1      6.1229999999999993      12.245999999999999                  18.369
   180   1      6.1229999999999993      14.286999999999999      16.327999999999999
   181   1      4.0819999999999999      16.327999999999999                       0
   182   1      4.0819999999999999                  18.369      2.0409999999999999
   183   1      6.1229999999999993      16.327999999999999      2.0409999999999999
   184   1      6.1229999999999993                  18.369                       0
   185   1      4.0819999999999999      16.327999999999999      4.0819999999999999
   186   1      4.0819999999999999                  18.369      6.1229999999999993
   187   1      6.1229999999999993      16.327999999999999      6.1229999999999993
   188   1      6.1229999999999993                  18.369      4.0819999999999999
   189   1      4.0819999999999999      16.327999999999999      8.1639999999999997
   190   1      4.0819999999999999                  18.369                  10.205
   191   1      6.1229999999999993      16.327999999999999                  10.205
   192   1      6.1229999999999993                  18.369      8.1639999999999997
   193   1      4.0819999999999999      16.327999999999999      12.245999999999999
   194   1      4.0819999999999999                  18.369      14.286999999999999
   195   1      6.1229999999999993      16.327999999999999      14.286999999999999
   196   1      6.1229999999999993                  18.369      12.245999999999999
   197   1      4.0819999999999999      16.327999999999999      16.327999999999999
   198   1      4.0819999999999999                  18.369                  18.369
   199   1      6.1229999999999993      16.327999999999999                  18.369
   200   1      6.1229999999999993                  18.369      16.327999999999999
   201   1      8.1639999999999997                       0                       0
   202   1      8.1639999999999997      2.0409999999999999      2.0409999999999999
   203   1                  10.205                       0      2.0409999999999999
   204   1                  10.205      2.0409999999999999                       0
   205   1      8.1639999999999997                       0      4.0819999999999999
   206   1      8.1639999999999997      2.0409999999999999      6.1229999999999993
   207   1                  10.205                       0      6.1229999999999993
   208   1                  10.205      2.0409999999999999      4.0819999999999999
   209   1      8.1639999999999997                       0      8.1639999999999997
   210   1      8.1639999999999997      2.0409999999999999                  10.205
   211   1                  10.205                       0                  10.205
   212   1                  10.205      2.0409999999999999      8.1639999999999997
   213   1      8.1639999999999997                       0      12.245999999999999
   214   1      8.1639999999999997      2.0409999999999999      14.286999999999999
   215   1                  10.205                       0      14.286999999999999
   216   1                  10.205      2.0409999999999999      12.245999999999999
   217   1      8.1639999999999997                       0      16.327999999999999
   218   1      8.1639999999999997      2.0409999999999999                  18.369
   219   1                  10.205                       0                  18.369
   220   1                  10.205      2.0409999999999999      16.327999999999999
   221   1      8.1639999999999997      4.0819999999999999                       0
   222   1      8.1639999999999997      6.1229999999999993      2.0409999999999999
   223   1                  10.205      4.0819999999999999      2.0409999999999999
   224   1                  10.205      6.1229999999999993                       0
   225   1      8.1639999999999997      4.0819999999999999      4.0819999999999999
   226   1      8.1639999999999997      6.1229999999999993      6.1229999999999993
   227   1                  10.205      4.0819999999999999      6.1229999999999993
   228   1                  10.205      6.1229999999999993      4.0819999999999999
   229   1      8.1639999999999997      4.0819999999999999      8.1639999999999997
   230   1      8.1639999999999997      6.1229999999999993                  10.205
   231   1                  10.205      4.0819999999999999                  10.205
   232   1                  10.205      6.1229999999999993      8.1639999999999997
   233   1      8.1639999999999997      4.0819999999999999      12.245999999999999
   234   1      8.1639999999999997      6.1229999999999993      14.286999999999999
   235   1                  10.205      4.0819999999999999      14.286999999999999
   236   1                  10.205      6.1229999999999993      12.245999999999999
   237   1      8.1639999999999997      4.0819999999999999      16.327999999999999
   238   1      8.1639999999999997      6.1229999999999993                  18.369
   239   1                  10.205      4.0819999999999999                  18.369
   240   1                  10.205      6.1229999999999993      16.327999999999999
   241   1      8.1639999999999997      8.1639999999999997                       0
   242   1      8.1639999999999997                  10.205      2.0409999999999999
   243   1                  10.205      8.1639999999999997      2.0409999999999999
   244   1                  10.205                  10.205                       0
   245   1      8.1639999999999997      8.1639999999999997      4.0819999999999999
   246   1      8.1639999999999997                  10.205      6.1229999999999993
   247   1                  10.205      8.1639999999999997      6.1229999999999993
   248   1                  10.205                  10.205      4.0819999999999999
   249   1      8.1639999999999997      8.1639999999999997      8.1639999999999997
   250   1      8.1639999999999997                  10.205                  10.205
   251   1                  10.205      8.1639999999999997                  10.205
   252   1                  10.205                  10.205      8.1639999999999997
   253   1      8.1639999999999997      8.1639999999999997      12.245999999999999
   254   1      8.1639999999999997                  10.205      14.286999999999999
   255   1                  10.205      8.1639999999999997      14.286999999999999
   256   1                  10.205                  10.205      12.245999999999999
   257   1      8.1639999999999997      8.1639999999999997      16.327999999999999
   258   1      8.1639999999999997                  10.205                  18.369
   259   1                  10.205      8.1639999999999997                  18.369
   260   1                  10.205                  10.205      16.327999999999999
   261   1      8.1639999999999997      12.245999999999999                       0
   262   1      8.1639999999999997      14.286999999999999      2.0409999999999999
   263   1                  10.205      12.245999999999999      2.0409999999999999
   264   1                  10.205      14.286999999999999                       0
   265   1      8.1639999999999997      12.245999999999999      4.0819999999999999
   266   1      8.1639999999999997      14.286999999999999      6.1229999999999993
   267   1                  10.205      12.245999999999999      6.1229999999999993
   268   1                  10.205      14.286999999999999      4.0819999999999999
   269   1      8.1639999999999997      12.245999999999999      8.1639999999999997
   270   1      8.1639999999999997      14.286999999999999                  10.205
   271   1                  10.205      12.245999999999999                  10.205
   272   1                  10.205      14.286999999999999      8.1639999999999997
   273   1      8.1639999999999997      12.245999999999999      12.245999999999999
   274   1      8.1639999999999997      14.286999999999999      14.286999999999999
   275   1                  10.205      12.245999999999999      14.286999999999999
   276   1                  10.205      14.286999999999999      12.245999999999999
   277   1      8.1639999999999997      12.245999999999999      16.327999999999999
   278   1      8.1639999999999997      14.286999999999999                  18.369
   279   1                  10.205      12.245999999999999                  18.369
   280   1                  10.205      14.286999999999999      16.327999999999999
   281   1      8.1639999999999997      16.327999999999999                       0
   282   1      8.1639999999999997                  18.369      2.0409999999999999
   283   1                  10.205      16.327999999999999      2.0409999999999999
   284   1                  10.205                  18.369                       0
   285   1      8.1639999999999997      16.327999999999999      4.0819999999999999
   286   1      8.1639999999999997                  18.369      6.1229999999999993
   287   1                  10.205      16.327999999999999      6.1229999999999993
   288   1                  10.205                  18.369      4.0819999999999999
   289   1      8.1639999999999997      16.327999999999999      8.1639999999999997
   290   1      8.1639999999999997                  18.369                  10.205
   291   1                  10.205      16.327999999999999                  10.205
   292   1                  10.205                  18.369      8.1639999999999997
   293   1      8.1639999999999997      16.327999999999999      12.245999999999999
   294   1      8.1639999999999997                  18.369      14.286999999999999
   295   1                  10.205      16.327999999999999      14.286999999999999
   296   1                  10.205                  18.369      12.245999999999999
   297   1      8.1639999999999997      16.327999999999999      16.327999999999999
   298   1      8.1639999999999997                  18.369                  18.369
   299   1                  10.205      16.327999999999999                  18.369
   300   1                  10.205                  18.369      16.327999999999999
   301   1      12.245999999999999                       0                       0
   302   1      12.245999999999999      2.0409999999999999      2.0409999999999999
   303   1      14.286999999999999                       0      2.0409999999999999
   304   1      14.286999999999999      2.0409999999999999                       0
   305   1      12.245999999999999                       0      4.0819999999999999
   306   1      12.245999999999999      2.0409999999999999      6.1229999999999993
   307   1      14.286999999999999                       0      6.1229999999999993
   308   1      14.286999999999999      2.0409999999999999      4.0819999999999999
   309   1      12.245999999999999                       0      8.1639999999999997
   310   1      12.245999999999999      2.0409999999999999                  10.205
   311   1      14.286999999999999                       0                  10.205
   312   1      14.286999999999999      2.0409999999999999      8.1639999999999997
   313   1      12.245999999999999                       0      12.245999999999999
   314   1      12.245999999999999      2.0409999999999999      14.286999999999999
   315   1      14.286999999999999                       0      14.286999999999999
   316   1      14.286999999999999      2.0409999999999999      12.245999999999999
   317   1      12.245999999999999                       0      16.327999999999999
   318   1      12.245999999999999      2.0409999999999999                  18.369
   319   1      14.286999999999999                       0                  18.369
   320   1      14.286999999999999      2.0409999999999999      16.327999999999999
   321   1      12.245999999999999      4.0819999999999999                       0
   322   1      12.245999999999999      6.1229999999999993      2.0409999999999999
   323   1      14.286999999999999      4.0819999999999999      2.0409999999999999
   324   1      14.286999999999999      6.1229999999999993                       0
   325   1      12.245999999999999      4.0819999999999999      4.0819999999999999
   326   1      12.245999999999999      6.1229999999999993      6.1229999999999993
   327   1      14.286999999999999      4.0819999999999999      6.1229999999999993
   328   1      14.286999999999999      6.1229999999999993      4.0819999999999999
   329   1      12.245999999999999      4.0819999999999999      8.1639999999999997
   330   1      12.245999999999999      6.1229999999999993                  10.205
   331   1      14.286999999999999      4.0819999999999999                  10.205
   332   1      14.286999999999999      6.1229999999999993      8.1639999999999997
   333   1      12.245999999999999      4.0819999999999999      12.245999999999999
   334   1      12.245999999999999      6.1229999999999993      14.286999999999999
   335   1      14.286999999999999      4.0819999999999999      14.286999999999999
   336   1      14.286999999999999      6.1229999999999993      12.245999999999999
   337   1      12.245999999999999      4.0819999999999999      16.327999999999999
   338   1      12.245999999999999      6.1229999999999993                  18.369
   339   1      14.286999999999999      4.0819999999999999                  18.369
   340   1      14.286999999999999      6.1229999999999993      16.327999999999999
   341   1      12.245999999999999      8.1639999999999997                       0
   342   1      12.245999999999999                  10.205      2.0409999999999999
   343   1      14.286999999999999      8.1639999999999997      2.0409999999999999
   344   1      14.286999999999999                  10.205                       0
   345   1      12.245999999999999      8.1639999999999997      4.0819999999999999
   346   1      12.245999999999999                  10.205      6.1229999999999993
   347   1      14.286999999999999      8.1639999999999997      6.1229999999999993
   348   1      14.286999999999999                  10.205      4.0819999999999999
   349   1      12.245999999999999      8.1639999999999997      8.1639999999999997
   350   1      12.245999999999999                  10.205                  10.205
   351   1      14.286999999999999      8.1639999999999997                  10.205
   352   1      14.286999999999999                  10.205      8.1639999999999997
   353   1      12.245999999999999      8.1639999999999997      12.245999999999999
   354   1      12.245999999999999                  10.205      14.286999999999999
   355   1      14.286999999999999      8.1639999999999997      14.286999999999999
   356   1      14.286999999999999                  10.205      12.245999999999999
   357   1      12.245999999999999      8.1639999999999997      16.327999999999999
   358   1      12.245999999999999                  10.205                  18.369