(written by ASE)

2047 atoms
1 atom types

0.0      32.655999999999999  xlo xhi
0.0      32.655999999999999  ylo yhi
0.0      32.655999999999999  zlo zhi

Masses

     1      107.86819997225152 # Ag

Atoms # atomic

     1   1                       0                       0                       0
     2   1                       0      2.0409999999999999      2.0409999999999999
     3   1      2.0409999999999999                       0      2.0409999999999999
     4   1      2.0409999999999999      2.0409999999999999                       0
     5   1                       0                       0      4.0819999999999999
     6   1                       0      2.0409999999999999      6.1229999999999993
     7   1      2.0409999999999999                       0      6.1229999999999993
     8   1      2.0409999999999999      2.0409999999999999      4.0819999999999999
     9   1                       0                       0      8.1639999999999997
    10   1                       0      2.0409999999999999                  10.205
    11   1      2.0409999999999999                       0                  10.205
    12   1      2.0409999999999999      2.0409999999999999      8.1639999999999997
    13   1                       0                       0      12.245999999999999
    14   1                       0      2.0409999999999999      14.286999999999999
    15   1      2.0409999999999999                       0      14.286999999999999
    16   1      2.0409999999999999      2.0409999999999999      12.245999999999999
    17   1                       0                       0      16.327999999999999
    18   1                       0      2.0409999999999999                  18.369
    19   1      2.0409999999999999                       0                  18.369
    20   1      2.0409999999999999      2.0409999999999999      16.327999999999999
    21   1                       0                       0                   20.41
    22   1                       0      2.0409999999999999      22.451000000000001
    23   1      2.0409999999999999                       0      22.451000000000001
    24   1      2.0409999999999999      2.0409999999999999                   20.41
    25   1                       0                       0      24.491999999999997
    26   1                       0      2.0409999999999999      26.532999999999998
    27   1      2.0409999999999999                       0      26.532999999999998
    28   1      2.0409999999999999      2.0409999999999999      24.491999999999997
    29   1                       0                       0      28.573999999999998
    30   1                       0      2.0409999999999999      30.614999999999998
    31   1      2.0409999999999999                       0      30.614999999999998
    32   1      2.0409999999999999      2.0409999999999999      28.573999999999998
    33   1                       0      4.0819999999999999                       0
    34   1                       0      6.1229999999999993      2.0409999999999999
    35   1      2.0409999999999999      4.0819999999999999      2.0409999999999999
    36   1      2.0409999999999999      6.1229999999999993                       0
    37   1                       0      4.0819999999999999      4.0819999999999999
    38   1                       0      6.1229999999999993      6.1229999999999993
    39   1      2.0409999999999999      4.0819999999999999      6.1229999999999993
    40   1      2.0409999999999999      6.1229999999999993      4.0819999999999999
    41   1                       0      4.0819999999999999      8.1639999999999997
    42   1                       0      6.1229999999999993                  10.205
    43   1      2.0409999999999999      4.0819999999999999                  10.205
    44   1      2.0409999999999999      6.1229999999999993      8.1639999999999997
    45   1                       0      4.0819999999999999      12.245999999999999
    46   1                       0      6.1229999999999993      14.286999999999999
    47   1      2.0409999999999999      4.0819999999999999      14.286999999999999
    48   1      2.0409999999999999      6.1229999999999993      12.245999999999999
    49   1                       0      4.0819999999999999      16.327999999999999
    50   1                       0      6.1229999999999993                  18.369
    51   1      2.0409999999999999      4.0819999999999999                  18.369
    52   1      2.0409999999999999      6.1229999999999993      16.327999999999999
    53   1                       0      4.0819999999999999                   20.41
    54   1                       0      6.1229999999999993      22.451000000000001
    55   1      2.0409999999999999      4.0819999999999999      22.451000000000001
    56   1      2.0409999999999999      6.1229999999999993                   20.41
    57   1                       0      4.0819999999999999      24.491999999999997
    58   1                       0      6.1229999999999993      26.532999999999998
    59   1      2.0409999999999999      4.0819999999999999      26.532999999999998
    60   1      2.0409999999999999      6.1229999999999993      24.491999999999997
    61   1                       0      4.0819999999999999      28.573999999999998
    62   1                       0      6.1229999999999993      30.614999999999998
    63   1      2.0409999999999999      4.0819999999999999      30.614999999999998
    64   1      2.0409999999999999      6.1229999999999993      28.573999999999998
    65   1                       0      8.1639999999999997                       0
    66   1                       0                  10.205      2.0409999999999999
    67   1      2.0409999999999999      8.1639999999999997      2.0409999999999999
    68   1      2.0409999999999999                  10.205                       0
    69   1                       0      8.1639999999999997      4.0819999999999999
    70   1                       0                  10.205      6.1229999999999993
    71   1      2.0409999999999999      8.1639999999999997      6.1229999999999993
    72   1      2.0409999999999999                  10.205      4.0819999999999999
    73   1                       0      8.1639999999999997      8.1639999999999997
    74   1                       0                  10.205                  10.205
    75   1      2.0409999999999999      8.1639999999999997                  10.205
    76   1      2.0409999999999999                  10.205      8.1639999999999997
    77   1                       0      8.1639999999999997      12.245999999999999
    78   1                       0                  10.205      14.286999999999999
    79   1      2.0409999999999999      8.1639999999999997      14.286999999999999
    80   1      2.0409999999999999                  10.205      12.245999999999999
    81   1                       0      8.1639999999999997      16.327999999999999
    82   1                       0                  10.205                  18.369
    83   1      2.0409999999999999      8.1639999999999997                  18.369
    84   1      2.0409999999999999                  10.205      16.327999999999999
    85   1                       0      8.1639999999999997                   20.41
    86   1                       0                  10.205      22.451000000000001
    87   1      2.0409999999999999      8.1639999999999997      22.451000000000001
    88   1      2.0409999999999999                  10.205                   20.41
    89   1                       0      8.1639999999999997      24.491999999999997
    90   1                       0                  10.205      26.532999999999998
    91   1      2.0409999999999999      8.1639999999999997      26.532999999999998
    92   1      2.0409999999999999                  10.205      24.491999999999997
    93   1                       0      8.1639999999999997      28.573999999999998
    94   1                       0                  10.205      30.614999999999998
    95   1      2.0409999999999999      8.1639999999999997      30.614999999999998
    96   1      2.0409999999999999                  10.205      28.573999999999998
    97   1                       0      12.245999999999999                       0
    98   1                       0      14.286999999999999      2.0409999999999999
    99   1      2.0409999999999999      12.245999999999999      2.0409999999999999
   100   1      2.0409999999999999      14.286999999999999                       0
   101   1                       0      12.245999999999999      4.0819999999999999
   102   1                       0      14.286999999999999      6.1229999999999993
   103   1      2.0409999999999999      12.245999999999999      6.1229999999999993
   104   1      2.0409999999999999      14.286999999999999      4.0819999999999999
   105   1                       0      12.245999999999999      8.1639999999999997
   106   1                       0      14.286999999999999                  10.205
   107   1      2.0409999999999999      12.245999999999999                  10.205
   108   1      2.0409999999999999      14.286999999999999      8.1639999999999997
   109   1                       0      12.245999999999999      12.245999999999999
   110   1                       0      14.286999999999999      14.286999999999999
   111   1      2.0409999999999999      12.245999999999999      14.286999999999999
   112   1      2.0409999999999999      14.286999999999999      12.245999999999999
   113   1                       0      12.245999999999999      16.327999999999999
   114   1                       0      14.286999999999999                  18.369
   115   1      2.0409999999999999      12.245999999999999                  18.369
   116   1      2.0409999999999999      14.286999999999999      16.327999999999999
   117   1                       0      12.245999999999999                   20.41
   118   1                       0      14.286999999999999      22.451000000000001
   119   1      2.0409999999999999      12.245999999999999      22.451000000000001
   120   1      2.0409999999999999      14.286999999999999                   20.41
   121   1                       0      12.245999999999999      24.491999999999997
   122   1                       0      14.286999999999999      26.532999999999998
   123   1      2.0409999999999999      12.245999999999999      26.532999999999998
   124   1      2.0409999999999999      14.286999999999999      24.491999999999997
   125   1                       0      12.245999999999999      28.573999999999998
   126   1                       0      14.286999999999999      30.614999999999998
   127   1      2.0409999999999999      12.245999999999999      30.614999999999998
   128   1      2.0409999999999999      14.286999999999999      28.573999999999998
   129   1                       0      16.327999999999999                       0
   130   1                       0                  18.369      2.0409999999999999
   131   1      2.0409999999999999      16.327999999999999      2.0409999999999999
   132   1      2.0409999999999999                  18.369                       0
   133   1                       0      16.327999999999999      4.0819999999999999
   134   1                       0                  18.369      6.1229999999999993
   135   1      2.0409999999999999      16.327999999999999      6.1229999999999993
   136   1      2.0409999999999999                  18.369      4.0819999999999999
   137   1                       0      16.327999999999999      8.1639999999999997
   138   1                       0                  18.369                  10.205
   139   1      2.0409999999999999      16.327999999999999                  10.205
   140   1      2.0409999999999999                  18.369      8.1639999999999997
   141   1                       0      16.327999999999999      12.245999999999999
   142   1                       0                  18.369      14.286999999999999
   143   1      2.0409999999999999      16.327999999999999      14.286999999999999
   144   1      2.0409999999999999                  18.369      12.245999999999999
   145   1                       0      16.327999999999999      16.327999999999999
   146   1                       0                  18.369                  18.369
   147   1      2.0409999999999999      16.327999999999999                  18.369
   148   1      2.0409999999999999                  18.369      16.327999999999999
   149   1                       0      16.327999999999999                   20.41
   150   1                       0                  18.369      22.451000000000001
   151   1      2.0409999999999999      16.327999999999999      22.451000000000001
   152   1      2.0409999999999999                  18.369                   20.41
   153   1                       0      16.327999999999999      24.491999999999997
   154   1                       0                  18.369      26.532999999999998
   155   1      2.0409999999999999      16.327999999999999      26.532999999999998
   156   1      2.0409999999999999                  18.369      24.491999999999997
   157   1                       0      16.327999999999999      28.573999999999998
   158   1                       0                  18.369      30.614999999999998
   159   1      2.0409999999999999      16.327999999999999      30.614999999999998
   160   1      2.0409999999999999                  18.369      28.573999999999998
   161   1                       0                   20.41                       0
   162   1                       0      22.451000000000001      2.0409999999999999
   163   1      2.0409999999999999                   20.41      2.0409999999999999
   164   1      2.0409999999999999      22.451000000000001                       0
   165   1                       0                   20.41      4.0819999999999999
   166   1                       0      22.451000000000001      6.1229999999999993
   167   1      2.0409999999999999                   20.41      6.1229999999999993
   168   1      2.0409999999999999      22.451000000000001      4.0819999999999999
   169   1                       0                   20.41      8.1639999999999997
   170   1                       0      22.451000000000001                  10.205
   171   1      2.0409999999999999                   20.41                  10.205
   172   1      2.0409999999999999      22.451000000000001      8.1639999999999997
   173   1                       0                   20.41      12.245999999999999
   174   1                       0      22.451000000000001      14.286999999999999
   175   1      2.0409999999999999                   20.41      14.286999999999999
   176   1      2.0409999999999999      22.451000000000001      12.245999999999999
   177   1                       0                   20.41      16.327999999999999
   178   1                       0      22.451000000000001                  18.369
   179   1      2.0409999999999999                   20.41                  18.369
   180   1      2.0409999999999999      22.451000000000001      16.327999999999999
   181   1                       0                   20.41                   20.41
   182   1                       0      22.451000000000001      22.451000000000001
   183   1      2.0409999999999999                   20.41      22.451000000000001
   184   1      2.0409999999999999      22.451000000000001                   20.41
   185   1                       0                   20.41      24.491999999999997
   186   1                       0      22.451000000000001      26.532999999999998
   187   1      2.0409999999999999                   20.41      26.532999999999998
   188   1      2.0409999999999999      22.451000000000001      24.491999999999997
   189   1                       0                   20.41      28.573999999999998
   190   1                       0      22.451000000000001      30.614999999999998
   191   1      2.0409999999999999                   20.41      30.614999999999998
   192   1      2.0409999999999999      22.451000000000001      28.573999999999998
   193   1                       0      24.491999999999997                       0
   194   1                       0      26.532999999999998      2.0409999999999999
   195   1      2.0409999999999999      24.491999999999997      2.0409999999999999
   196   1      2.0409999999999999      26.532999999999998                       0
   197   1                       0      24.491999999999997      4.0819999999999999
   198   1                       0      26.532999999999998      6.1229999999999993
   199   1      2.0409999999999999      24.491999999999997      6.1229999999999993
   200   1      2.0409999999999999      26.532999999999998      4.0819999999999999
   201   1                       0      24.491999999999997      8.1639999999999997
   202   1                       0      26.532999999999998                  10.205
   203   1      2.0409999999999999      24.491999999999997                  10.205
   204   1      2.0409999999999999      26.532999999999998      8.1639999999999997
   205   1                       0      24.491999999999997      12.245999999999999
   206   1                       0      26.532999999999998      14.286999999999999
   207   1      2.0409999999999999      24.491999999999997      14.286999999999999
   208   1      2.0409999999999999      26.532999999999998      12.245999999999999
   209   1                       0      24.491999999999997      16.327999999999999
   210   1                       0      26.532999999999998                  18.369
   211   1      2.0409999999999999      24.491999999999997                  18.369
   212   1      2.0409999999999999      26.532999999999998      16.327999999999999
   213   1                       0      24.491999999999997                   20.41
   214   1                       0      26.532999999999998      22.451000000000001
   215   1      2.0409999999999999      24.491999999999997      22.451000000000001
   216   1      2.0409999999999999      26.532999999999998                   20.41
   217   1                       0      24.491999999999997      24.491999999999997
   218   1                       0      26.532999999999998      26.532999999999998
   219   1      2.0409999999999999      24.491999999999997      26.532999999999998
   220   1      2.0409999999999999      26.532999999999998      24.491999999999997
   221   1                       0      24.491999999999997      28.573999999999998
   222   1                       0      26.532999999999998      30.614999999999998
   223   1      2.0409999999999999      24.491999999999997      30.614999999999998
   224   1      2.0409999999999999      26.532999999999998      28.573999999999998
   225   1                       0      28.573999999999998                       0
   226   1                       0      30.614999999999998      2.0409999999999999
   227   1      2.0409999999999999      28.573999999999998      2.0409999999999999
   228   1      2.0409999999999999      30.614999999999998                       0
   229   1                       0      28.573999999999998      4.0819999999999999
   230   1                       0      30.614999999999998      6.1229999999999993
   231   1      2.0409999999999999      28.573999999999998      6.1229999999999993
   232   1      2.0409999999999999      30.614999999999998      4.0819999999999999
   233   1                       0      28.573999999999998      8.1639999999999997
   234   1                       0      30.614999999999998                  10.205
   235   1      2.0409999999999999      28.573999999999998                  10.205
   236   1      2.0409999999999999      30.614999999999998      8.1639999999999997
   237   1                       0      28.573999999999998      12.245999999999999
   238   1                       0      30.614999999999998      14.286999999999999
   239   1      2.0409999999999999      28.573999999999998      14.286999999999999
   240   1      2.0409999999999999      30.614999999999998      12.245999999999999
   241   1                       0      28.573999999999998      16.327999999999999
   242   1                       0      30.614999999999998                  18.369
   243   1      2.0409999999999999      28.573999999999998                  18.369
   244   1      2.0409999999999999      30.614999999999998      16.327999999999999
   245   1                       0      28.573999999999998                   20.41
   246   1                       0      30.614999999999998      22.451000000000001
   247   1      2.0409999999999999      28.573999999999998      22.451000000000001
   248   1      2.0409999999999999      30.614999999999998                   20.41
   249   1                       0      28.573999999999998      24.491999999999997
   250   1                       0      30.614999999999998      26.532999999999998
   251   1      2.0409999999999999      28.573999999999998      26.532999999999998
   252   1      2.0409999999999999      30.614999999999998      24.491999999999997
   253   1                       0      28.573999999999998      28.573999999999998
   254   1                       0      30.614999999999998      30.614999999999998
   255   1      2.0409999999999999      28.573999999999998      30.614999999999998
   256   1      2.0409999999999999      30.614999999999998      28.573999999999998
   257   1      4.0819999999999999                       0                       0
   258   1      4.0819999999999999      2.0409999999999999      2.0409999999999999
   259   1      6.1229999999999993                       0      2.0409999999999999
   260   1      6.1229999999999993      2.0409999999999999                       0
   261   1      4.0819999999999999                       0      4.0819999999999999
   262   1      4.0819999999999999      2.0409999999999999      6.1229999999999993
   263   1      6.1229999999999993                       0      6.1229999999999993
   264   1      6.1229999999999993      2.0409999999999999      4.0819999999999999
   265   1      4.0819999999999999                       0      8.1639999999999997
   266   1      4.0819999999999999      2.0409999999999999                  10.205
   267   1      6.1229999999999993                       0                  10.205
   268   1      6.1229999999999993      2.0409999999999999      8.1639999999999997
   269   1      4.0819999999999999                       0      12.245999999999999
   270   1      4.0819999999999999      2.0409999999999999      14.286999999999999
   271   1      6.1229999999999993                       0      14.286999999999999
   272   1      6.1229999999999993      2.0409999999999999      12.245999999999999
   273   1      4.0819999999999999                       0      16.327999999999999
   274   1      4.0819999999999999      2.0409999999999999                  18.369
   275   1      6.1229999999999993                       0                  18.369
   276   1      6.1229999999999993      2.0409999999999999      16.327999999999999
   277   1      4.0819999999999999                       0                   20.41
   278   1      4.0819999999999999      2.0409999999999999      22.451000000000001
   279   1      6.1229999999999993                       0      22.451000000000001
   280   1      6.1229999999999993      2.0409999999999999                   20.41
   281   1      4.0819999999999999                       0      24.491999999999997
   282   1      4.0819999999999999      2.0409999999999999      26.532999999999998
   283   1      6.1229999999999993                       0      26.532999999999998
   284   1      6.1229999999999993      2.0409999999999999      24.491999999999997
   285   1      4.0819999999999999                       0      28.573999999999998
   286   1      4.0819999999999999      2.0409999999999999      30.614999999999998
   287   1      6.1229999999999993                       0      30.614999999999998
   288   1      6.1229999999999993      2.0409999999999999      28.573999999999998
   289   1      4.0819999999999999      4.0819999999999999                       0
   290   1      4.0819999999999999      6.1229999999999993      2.0409999999999999
   291   1      6.1229999999999993      4.0819999999999999      2.0409999999999999
   292   1      6.1229999999999993      6.1229999999999993                       0
   293   1      4.0819999999999999      4.0819999999999999      4.0819999999999999
   294   1      4.0819999999999999      6.1229999999999993      6.1229999999999993
   295   1      6.1229999999999993      4.0819999999999999      6.1229999999999993
   296   1      6.1229999999999993      6.1229999999999993      4.0819999999999999
   297   1      4.0819999999999999      4.0819999999999999      8.1639999999999997
   298   1      4.0819999999999999      6.1229999999999993                  10.205
   299   1      6.1229999999999993      4.0819999999999999                  10.205
   300   1      6.1229999999999993      6.1229999999999993      8.1639999999999997
   301   1      4.0819999999999999      4.0819999999999999      12.245999999999999
   302   1      4.0819999999999999      6.1229999999999993      14.286999999999999
   303   1      6.1229999999999993      4.0819999999999999      14.286999999999999
   304   1      6.1229999999999993      6.1229999999999993      12.245999999999999
   305   1      4.0819999999999999      4.0819999999999999      16.327999999999999
   306   1      4.0819999999999999      6.1229999999999993                  18.369
   307   1      6.1229999999999993      4.0819999999999999                  18.369
   308   1      6.1229999999999993      6.1229999999999993      16.327999999999999
   309   1      4.0819999999999999      4.0819999999999999                   20.41
   310   1      4.0819999999999999      6.1229999999999993      22.451000000000001
   311   1      6.1229999999999993      4.0819999999999999      22.451000000000001
   312   1      6.1229999999999993      6.1229999999999993                   20.41
   313   1      4.0819999999999999      4.0819999999999999      24.491999999999997
   314   1      4.0819999999999999      6.1229999999999993      26.532999999999998
   315   1      6.1229999999999993      4.0819999999999999      26.532999999999998
   316   1      6.1229999999999993      6.1229999999999993      24.491999999999997
   317   1      4.0819999999999999      4.0819999999999999      28.573999999999998
   318   1      4.0819999999999999      6.1229999999999993      30.614999999999998
   319   1      6.1229999999999993      4.0819999999999999      30.614999999999998
   320   1      6.1229999999999993      6.1229999999999993      28.573999999999998
   321   1      4.0819999999999999      8.1639999999999997                       0
   322   1      4.0819999999999999                  10.205      2.0409999999999999
   323   1      6.1229999999999993      8.1639999999999997      2.0409999999999999
   324   1      6.1229999999999993                  10.205                       0
   325   1      4.0819999999999999      8.1639999999999997      4.0819999999999999
   326   1      4.0819999999999999                  10.205      6.1229999999999993
   327   1      6.1229999999999993      8.1639999999999997      6.1229999999999993
   328   1      6.1229999999999993                  10.205      4.0819999999999999
   329   1      4.0819999999999999      8.1639999999999997      8.1639999999999997
   330   1      4.0819999999999999                  10.205                  10.205
   331   1      6.1229999999999993      8.1639999999999997                  10.205
   332   1      6.1229999999999993                  10.205      8.1639999999999997
   333   1      4.0819999999999999      8.1639999999999997      12.245999999999999
   334   1      4.0819999999999999                  10.205      14.286999999999999
   335   1      6.1229999999999993      8.1639999999999997      14.286999999999999
   336   1      6.1229999999999993                  10.205      12.245999999999999
   337   1      4.0819999999999999      8.1639999999999997      16.327999999999999
   338   1      4.0819999999999999                  10.205                  18.369
   339   1      6.1229999999999993      8.1639999999999997                  18.369
   340   1      6.1229999999999993                  10.205      16.327999999999999
   341   1      4.0819999999999999      8.1639999999999997                   20.41
   342   1      4.0819999999999999                  10.205      22.451000000000001
   343   1      6.1229999999999993      8.1639999999999997      22.451000000000001
   344   1      6.1229999999999993                  10.205                   20.41
   345   1      4.0819999999999999      8.1639999999999997      24.491999999999997
   346   1      4.0819999999999999                  10.205      26.532999999999998
   347   1      6.1229999999999993      8.1639999999999997      26.532999999999998
   348   1      6.1229999999999993                  10.205      24.491999999999997
   349   1      4.0819999999999999      8.1639999999999997      28.573999999999998
   350   1      4.0819999999999999                  10.205      30.614999999999998
   351   1      6.1229999999999993      8.1639999999999997      30.614999999999998
   352   1      6.1229999999999993                  10.205      28.573999999999998
   353   1      4.0819999999999999      12.245999999999999                       0
   354   1      4.0819999999999999      14.286999999999999      2.0409999999999999
   355   1      6.1229999999999993      12.245999999999999      2.0409999999999999
   356   1      6.1229999999999993      14.286999999999999                       0
   357   1      4.0819999999999999      12.245999999999999      4.0819999999999999
   358   1      4.0819999999999999      14.286999999999999      6.1229999999999993