(written by ASE)

8787 atoms
1 atom types

0.0      53.065999999999995  xlo xhi
0.0      53.065999999999995  ylo yhi
0.0      53.065999999999995  zlo zhi

Masses

     1      107.86819997225152 # Ag

Atoms # atomic

     1   1                       0                       0                       0
     2   1                       0      2.0409999999999995      2.0409999999999995
     3   1      2.0409999999999995                       0      2.0409999999999995
     4   1      2.0409999999999995      2.0409999999999995                       0
     5   1                       0                       0       4.081999999999999
     6   1                       0      2.0409999999999995      6.1229999999999984
     7   1      2.0409999999999995                       0      6.1229999999999984
     8   1      2.0409999999999995      2.0409999999999995       4.081999999999999
     9   1                       0                       0      8.1639999999999979
    10   1                       0      2.0409999999999995      10.204999999999998
    11   1      2.0409999999999995                       0      10.204999999999998
    12   1      2.0409999999999995      2.0409999999999995      8.1639999999999979
    13   1                       0                       0      12.245999999999997
    14   1                       0      2.0409999999999995      14.286999999999997
    15   1      2.0409999999999995                       0      14.286999999999997
    16   1      2.0409999999999995      2.0409999999999995      12.245999999999997
    17   1                       0                       0      16.327999999999996
    18   1                       0      2.0409999999999995      18.368999999999996
    19   1      2.0409999999999995                       0      18.368999999999996
    20   1      2.0409999999999995      2.0409999999999995      16.327999999999996
    21   1                       0                       0      20.409999999999997
    22   1                       0      2.0409999999999995      22.450999999999997
    23   1      2.0409999999999995                       0      22.450999999999997
    24   1      2.0409999999999995      2.0409999999999995      20.409999999999997
    25   1                       0                       0      24.491999999999994
    26   1                       0      2.0409999999999995      26.532999999999994
    27   1      2.0409999999999995                       0      26.532999999999994
    28   1      2.0409999999999995      2.0409999999999995      24.491999999999994
    29   1                       0                       0      28.573999999999995
    30   1                       0      2.0409999999999995      30.614999999999995
    31   1      2.0409999999999995                       0      30.614999999999995
    32   1      2.0409999999999995      2.0409999999999995      28.573999999999995
    33   1                       0                       0      32.655999999999992
    34   1                       0      2.0409999999999995      34.696999999999989
    35   1      2.0409999999999995                       0      34.696999999999989
    36   1      2.0409999999999995      2.0409999999999995      32.655999999999992
    37   1                       0                       0      36.737999999999992
    38   1                       0      2.0409999999999995      38.778999999999989
    39   1      2.0409999999999995                       0      38.778999999999989
    40   1      2.0409999999999995      2.0409999999999995      36.737999999999992
    41   1                       0                       0      40.819999999999993
    42   1                       0      2.0409999999999995       42.86099999999999
    43   1      2.0409999999999995                       0       42.86099999999999
    44   1      2.0409999999999995      2.0409999999999995      40.819999999999993
    45   1                       0                       0      44.901999999999994
    46   1                       0      2.0409999999999995      46.942999999999991
    47   1      2.0409999999999995                       0      46.942999999999991
    48   1      2.0409999999999995      2.0409999999999995      44.901999999999994
    49   1                       0                       0      48.983999999999988
    50   1                       0      2.0409999999999995      51.024999999999984
    51   1      2.0409999999999995                       0      51.024999999999984
    52   1      2.0409999999999995      2.0409999999999995      48.983999999999988
    53   1                       0       4.081999999999999                       0
    54   1                       0      6.1229999999999984      2.0409999999999995
    55   1      2.0409999999999995       4.081999999999999      2.0409999999999995
    56   1      2.0409999999999995      6.1229999999999984                       0
    57   1                       0       4.081999999999999       4.081999999999999
    58   1                       0      6.1229999999999984      6.1229999999999984
    59   1      2.0409999999999995       4.081999999999999      6.1229999999999984
    60   1      2.0409999999999995      6.1229999999999984       4.081999999999999
    61   1                       0       4.081999999999999      8.1639999999999979
    62   1                       0      6.1229999999999984      10.204999999999998
    63   1      2.0409999999999995       4.081999999999999      10.204999999999998
    64   1      2.0409999999999995      6.1229999999999984      8.1639999999999979
    65   1                       0       4.081999999999999      12.245999999999997
    66   1                       0      6.1229999999999984      14.286999999999997
    67   1      2.0409999999999995       4.081999999999999      14.286999999999997
    68   1      2.0409999999999995      6.1229999999999984      12.245999999999997
    69   1                       0       4.081999999999999      16.327999999999996
    70   1                       0      6.1229999999999984      18.368999999999996
    71   1      2.0409999999999995       4.081999999999999      18.368999999999996
    72   1      2.0409999999999995      6.1229999999999984      16.327999999999996
    73   1                       0       4.081999999999999      20.409999999999997
    74   1                       0      6.1229999999999984      22.450999999999997
    75   1      2.0409999999999995       4.081999999999999      22.450999999999997
    76   1      2.0409999999999995      6.1229999999999984      20.409999999999997
    77   1                       0       4.081999999999999      24.491999999999994
    78   1                       0      6.1229999999999984      26.532999999999994
    79   1      2.0409999999999995       4.081999999999999      26.532999999999994
    80   1      2.0409999999999995      6.1229999999999984      24.491999999999994
    81   1                       0       4.081999999999999      28.573999999999995
    82   1                       0      6.1229999999999984      30.614999999999995
    83   1      2.0409999999999995       4.081999999999999      30.614999999999995
    84   1      2.0409999999999995      6.1229999999999984      28.573999999999995
    85   1                       0       4.081999999999999      32.655999999999992
    86   1                       0      6.1229999999999984      34.696999999999989
    87   1      2.0409999999999995       4.081999999999999      34.696999999999989
    88   1      2.0409999999999995      6.1229999999999984      32.655999999999992
    89   1                       0       4.081999999999999      36.737999999999992
    90   1                       0      6.1229999999999984      38.778999999999989
    91   1      2.0409999999999995       4.081999999999999      38.778999999999989
    92   1      2.0409999999999995      6.1229999999999984      36.737999999999992
    93   1                       0       4.081999999999999      40.819999999999993
    94   1                       0      6.1229999999999984       42.86099999999999
    95   1      2.0409999999999995       4.081999999999999       42.86099999999999
    96   1      2.0409999999999995      6.1229999999999984      40.819999999999993
    97   1                       0       4.081999999999999      44.901999999999994
    98   1                       0      6.1229999999999984      46.942999999999991
    99   1      2.0409999999999995       4.081999999999999      46.942999999999991
   100   1      2.0409999999999995      6.1229999999999984      44.901999999999994
   101   1                       0       4.081999999999999      48.983999999999988
   102   1                       0      6.1229999999999984      51.024999999999984
   103   1      2.0409999999999995       4.081999999999999      51.024999999999984
   104   1      2.0409999999999995      6.1229999999999984      48.983999999999988
   105   1                       0      8.1639999999999979                       0
   106   1                       0      10.204999999999998      2.0409999999999995
   107   1      2.0409999999999995      8.1639999999999979      2.0409999999999995
   108   1      2.0409999999999995      10.204999999999998                       0
   109   1                       0      8.1639999999999979       4.081999999999999
   110   1                       0      10.204999999999998      6.1229999999999984
   111   1      2.0409999999999995      8.1639999999999979      6.1229999999999984
   112   1      2.0409999999999995      10.204999999999998       4.081999999999999
   113   1                       0      8.1639999999999979      8.1639999999999979
   114   1                       0      10.204999999999998      10.204999999999998
   115   1      2.0409999999999995      8.1639999999999979      10.204999999999998
   116   1      2.0409999999999995      10.204999999999998      8.1639999999999979
   117   1                       0      8.1639999999999979      12.245999999999997
   118   1                       0      10.204999999999998      14.286999999999997
   119   1      2.0409999999999995      8.1639999999999979      14.286999999999997
   120   1      2.0409999999999995      10.204999999999998      12.245999999999997
   121   1                       0      8.1639999999999979      16.327999999999996
   122   1                       0      10.204999999999998      18.368999999999996
   123   1      2.0409999999999995      8.1639999999999979      18.368999999999996
   124   1      2.0409999999999995      10.204999999999998      16.327999999999996
   125   1                       0      8.1639999999999979      20.409999999999997
   126   1                       0      10.204999999999998      22.450999999999997
   127   1      2.0409999999999995      8.1639999999999979      22.450999999999997
   128   1      2.0409999999999995      10.204999999999998      20.409999999999997
   129   1                       0      8.1639999999999979      24.491999999999994
   130   1                       0      10.204999999999998      26.532999999999994
   131   1      2.0409999999999995      8.1639999999999979      26.532999999999994
   132   1      2.0409999999999995      10.204999999999998      24.491999999999994
   133   1                       0      8.1639999999999979      28.573999999999995
   134   1                       0      10.204999999999998      30.614999999999995
   135   1      2.0409999999999995      8.1639999999999979      30.614999999999995
   136   1      2.0409999999999995      10.204999999999998      28.573999999999995
   137   1                       0      8.1639999999999979      32.655999999999992
   138   1                       0      10.204999999999998      34.696999999999989
   139   1      2.0409999999999995      8.1639999999999979      34.696999999999989
   140   1      2.0409999999999995      10.204999999999998      32.655999999999992
   141   1                       0      8.1639999999999979      36.737999999999992
   142   1                       0      10.204999999999998      38.778999999999989
   143   1      2.0409999999999995      8.1639999999999979      38.778999999999989
   144   1      2.0409999999999995      10.204999999999998      36.737999999999992
   145   1                       0      8.1639999999999979      40.819999999999993
   146   1                       0      10.204999999999998       42.86099999999999
   147   1      2.0409999999999995      8.1639999999999979       42.86099999999999
   148   1      2.0409999999999995      10.204999999999998      40.819999999999993
   149   1                       0      8.1639999999999979      44.901999999999994
   150   1                       0      10.204999999999998      46.942999999999991
   151   1      2.0409999999999995      8.1639999999999979      46.942999999999991
   152   1      2.0409999999999995      10.204999999999998      44.901999999999994
   153   1                       0      8.1639999999999979      48.983999999999988
   154   1                       0      10.204999999999998      51.024999999999984
   155   1      2.0409999999999995      8.1639999999999979      51.024999999999984
   156   1      2.0409999999999995      10.204999999999998      48.983999999999988
   157   1                       0      12.245999999999997                       0
   158   1                       0      14.286999999999997      2.0409999999999995
   159   1      2.0409999999999995      12.245999999999997      2.0409999999999995
   160   1      2.0409999999999995      14.286999999999997                       0
   161   1                       0      12.245999999999997       4.081999999999999
   162   1                       0      14.286999999999997      6.1229999999999984
   163   1      2.0409999999999995      12.245999999999997      6.1229999999999984
   164   1      2.0409999999999995      14.286999999999997       4.081999999999999
   165   1                       0      12.245999999999997      8.1639999999999979
   166   1                       0      14.286999999999997      10.204999999999998
   167   1      2.0409999999999995      12.245999999999997      10.204999999999998
   168   1      2.0409999999999995      14.286999999999997      8.1639999999999979
   169   1                       0      12.245999999999997      12.245999999999997
   170   1                       0      14.286999999999997      14.286999999999997
   171   1      2.0409999999999995      12.245999999999997      14.286999999999997
   172   1      2.0409999999999995      14.286999999999997      12.245999999999997
   173   1                       0      12.245999999999997      16.327999999999996
   174   1                       0      14.286999999999997      18.368999999999996
   175   1      2.0409999999999995      12.245999999999997      18.368999999999996
   176   1      2.0409999999999995      14.286999999999997      16.327999999999996
   177   1                       0      12.245999999999997      20.409999999999997
   178   1                       0      14.286999999999997      22.450999999999997
   179   1      2.0409999999999995      12.245999999999997      22.450999999999997
   180   1      2.0409999999999995      14.286999999999997      20.409999999999997
   181   1                       0      12.245999999999997      24.491999999999994
   182   1                       0      14.286999999999997      26.532999999999994
   183   1      2.0409999999999995      12.245999999999997      26.532999999999994
   184   1      2.0409999999999995      14.286999999999997      24.491999999999994
   185   1                       0      12.245999999999997      28.573999999999995
   186   1                       0      14.286999999999997      30.614999999999995
   187   1      2.0409999999999995      12.245999999999997      30.614999999999995
   188   1      2.0409999999999995      14.286999999999997      28.573999999999995
   189   1                       0      12.245999999999997      32.655999999999992
   190   1                       0      14.286999999999997      34.696999999999989
   191   1      2.0409999999999995      12.245999999999997      34.696999999999989
   192   1      2.0409999999999995      14.286999999999997      32.655999999999992
   193   1                       0      12.245999999999997      36.737999999999992
   194   1                       0      14.286999999999997      38.778999999999989
   195   1      2.0409999999999995      12.245999999999997      38.778999999999989
   196   1      2.0409999999999995      14.286999999999997      36.737999999999992
   197   1                       0      12.245999999999997      40.819999999999993
   198   1                       0      14.286999999999997       42.86099999999999
   199   1      2.0409999999999995      12.245999999999997       42.86099999999999
   200   1      2.0409999999999995      14.286999999999997      40.819999999999993
   201   1                       0      12.245999999999997      44.901999999999994
   202   1                       0      14.286999999999997      46.942999999999991
   203   1      2.0409999999999995      12.245999999999997      46.942999999999991
   204   1      2.0409999999999995      14.286999999999997      44.901999999999994
   205   1                       0      12.245999999999997      48.983999999999988
   206   1                       0      14.286999999999997      51.024999999999984
   207   1      2.0409999999999995      12.245999999999997      51.024999999999984
   208   1      2.0409999999999995      14.286999999999997      48.983999999999988
   209   1                       0      16.327999999999996                       0
   210   1                       0      18.368999999999996      2.0409999999999995
   211   1      2.0409999999999995      16.327999999999996      2.0409999999999995
   212   1      2.0409999999999995      18.368999999999996                       0
   213   1                       0      16.327999999999996       4.081999999999999
   214   1                       0      18.368999999999996      6.1229999999999984
   215   1      2.0409999999999995      16.327999999999996      6.1229999999999984
   216   1      2.0409999999999995      18.368999999999996       4.081999999999999
   217   1                       0      16.327999999999996      8.1639999999999979
   218   1                       0      18.368999999999996      10.204999999999998
   219   1      2.0409999999999995      16.327999999999996      10.204999999999998
   220   1      2.0409999999999995      18.368999999999996      8.1639999999999979
   221   1                       0      16.327999999999996      12.245999999999997
   222   1                       0      18.368999999999996      14.286999999999997
   223   1      2.0409999999999995      16.327999999999996      14.286999999999997
   224   1      2.0409999999999995      18.368999999999996      12.245999999999997
   225   1                       0      16.327999999999996      16.327999999999996
   226   1                       0      18.368999999999996      18.368999999999996
   227   1      2.0409999999999995      16.327999999999996      18.368999999999996
   228   1      2.0409999999999995      18.368999999999996      16.327999999999996
   229   1                       0      16.327999999999996      20.409999999999997
   230   1                       0      18.368999999999996      22.450999999999997
   231   1      2.0409999999999995      16.327999999999996      22.450999999999997
   232   1      2.0409999999999995      18.368999999999996      20.409999999999997
   233   1                       0      16.327999999999996      24.491999999999994
   234   1                       0      18.368999999999996      26.532999999999994
   235   1      2.0409999999999995      16.327999999999996      26.532999999999994
   236   1      2.0409999999999995      18.368999999999996      24.491999999999994
   237   1                       0      16.327999999999996      28.573999999999995
   238   1                       0      18.368999999999996      30.614999999999995
   239   1      2.0409999999999995      16.327999999999996      30.614999999999995
   240   1      2.0409999999999995      18.368999999999996      28.573999999999995
   241   1                       0      16.327999999999996      32.655999999999992
   242   1                       0      18.368999999999996      34.696999999999989
   243   1      2.0409999999999995      16.327999999999996      34.696999999999989
   244   1      2.0409999999999995      18.368999999999996      32.655999999999992
   245   1                       0      16.327999999999996      36.737999999999992
   246   1                       0      18.368999999999996      38.778999999999989
   247   1      2.0409999999999995      16.327999999999996      38.778999999999989
   248   1      2.0409999999999995      18.368999999999996      36.737999999999992
   249   1                       0      16.327999999999996      40.819999999999993
   250   1                       0      18.368999999999996       42.86099999999999
   251   1      2.0409999999999995      16.327999999999996       42.86099999999999
   252   1      2.0409999999999995      18.368999999999996      40.819999999999993
   253   1                       0      16.327999999999996      44.901999999999994
   254   1                       0      18.368999999999996      46.942999999999991
   255   1      2.0409999999999995      16.327999999999996      46.942999999999991
   256   1      2.0409999999999995      18.368999999999996      44.901999999999994
   257   1                       0      16.327999999999996      48.983999999999988
   258   1                       0      18.368999999999996      51.024999999999984
   259   1      2.0409999999999995      16.327999999999996      51.024999999999984
   260   1      2.0409999999999995      18.368999999999996      48.983999999999988
   261   1                       0      20.409999999999997                       0
   262   1                       0      22.450999999999997      2.0409999999999995
   263   1      2.0409999999999995      20.409999999999997      2.0409999999999995
   264   1      2.0409999999999995      22.450999999999997                       0
   265   1                       0      20.409999999999997       4.081999999999999
   266   1                       0      22.450999999999997      6.1229999999999984
   267   1      2.0409999999999995      20.409999999999997      6.1229999999999984
   268   1      2.0409999999999995      22.450999999999997       4.081999999999999
   269   1                       0      20.409999999999997      8.1639999999999979
   270   1                       0      22.450999999999997      10.204999999999998
   271   1      2.0409999999999995      20.409999999999997      10.204999999999998
   272   1      2.0409999999999995      22.450999999999997      8.1639999999999979
   273   1                       0      20.409999999999997      12.245999999999997
   274   1                       0      22.450999999999997      14.286999999999997
   275   1      2.0409999999999995      20.409999999999997      14.286999999999997
   276   1      2.0409999999999995      22.450999999999997      12.245999999999997
   277   1                       0      20.409999999999997      16.327999999999996
   278   1                       0      22.450999999999997      18.368999999999996
   279   1      2.0409999999999995      20.409999999999997      18.368999999999996
   280   1      2.0409999999999995      22.450999999999997      16.327999999999996
   281   1                       0      20.409999999999997      20.409999999999997
   282   1                       0      22.450999999999997      22.450999999999997
   283   1      2.0409999999999995      20.409999999999997      22.450999999999997
   284   1      2.0409999999999995      22.450999999999997      20.409999999999997
   285   1                       0      20.409999999999997      24.491999999999994
   286   1                       0      22.450999999999997      26.532999999999994
   287   1      2.0409999999999995      20.409999999999997      26.532999999999994
   288   1      2.0409999999999995      22.450999999999997      24.491999999999994
   289   1                       0      20.409999999999997      28.573999999999995
   290   1                       0      22.450999999999997      30.614999999999995
   291   1      2.0409999999999995      20.409999999999997      30.614999999999995
   292   1      2.0409999999999995      22.450999999999997      28.573999999999995
   293   1                       0      20.409999999999997      32.655999999999992
   294   1                       0      22.450999999999997      34.696999999999989
   295   1      2.0409999999999995      20.409999999999997      34.696999999999989
   296   1      2.0409999999999995      22.450999999999997      32.655999999999992
   297   1                       0      20.409999999999997      36.737999999999992
   298   1                       0      22.450999999999997      38.778999999999989
   299   1      2.0409999999999995      20.409999999999997      38.778999999999989
   300   1      2.0409999999999995      22.450999999999997      36.737999999999992
   301   1                       0      20.409999999999997      40.819999999999993
   302   1                       0      22.450999999999997       42.86099999999999
   303   1      2.0409999999999995      20.409999999999997       42.86099999999999
   304   1      2.0409999999999995      22.450999999999997      40.819999999999993
   305   1                       0      20.409999999999997      44.901999999999994
   306   1                       0      22.450999999999997      46.942999999999991
   307   1      2.0409999999999995      20.409999999999997      46.942999999999991
   308   1      2.0409999999999995      22.450999999999997      44.901999999999994
   309   1                       0      20.409999999999997      48.983999999999988
   310   1                       0      22.450999999999997      51.024999999999984
   311   1      2.0409999999999995      20.409999999999997      51.024999999999984
   312   1      2.0409999999999995      22.450999999999997      48.983999999999988
   313   1                       0      24.491999999999994                       0
   314   1                       0      26.532999999999994      2.0409999999999995
   315   1      2.0409999999999995      24.491999999999994      2.0409999999999995
   316   1      2.0409999999999995      26.532999999999994                       0
   317   1                       0      24.491999999999994       4.081999999999999
   318   1                       0      26.532999999999994      6.1229999999999984
   319   1      2.0409999999999995      24.491999999999994      6.1229999999999984
   320   1      2.0409999999999995      26.532999999999994       4.081999999999999
   321   1                       0      24.491999999999994      8.1639999999999979
   322   1                       0      26.532999999999994      10.204999999999998
   323   1      2.0409999999999995      24.491999999999994      10.204999999999998
   324   1      2.0409999999999995      26.532999999999994      8.1639999999999979
   325   1                       0      24.491999999999994      12.245999999999997
   326   1                       0      26.532999999999994      14.286999999999997
   327   1      2.0409999999999995      24.491999999999994      14.286999999999997
   328   1      2.0409999999999995      26.532999999999994      12.245999999999997
   329   1                       0      24.491999999999994      16.327999999999996
   330   1                       0      26.532999999999994      18.368999999999996
   331   1      2.0409999999999995      24.491999999999994      18.368999999999996
   332   1      2.0409999999999995      26.532999999999994      16.327999999999996
   333   1                       0      24.491999999999994      20.409999999999997
   334   1                       0      26.532999999999994      22.450999999999997
   335   1      2.0409999999999995      24.491999999999994      22.450999999999997
   336   1      2.0409999999999995      26.532999999999994      20.409999999999997
   337   1                       0      24.491999999999994      24.491999999999994
   338   1                       0      26.532999999999994      26.532999999999994
   339   1      2.0409999999999995      24.491999999999994      26.532999999999994
   340   1      2.0409999999999995      26.532999999999994      24.491999999999994
   341   1                       0      24.491999999999994      28.573999999999995
   342   1                       0      26.532999999999994      30.614999999999995
   343   1      2.0409999999999995      24.491999999999994      30.614999999999995
   344   1      2.0409999999999995      26.532999999999994      28.573999999999995
   345   1                       0      24.491999999999994      32.655999999999992
   346   1                       0      26.532999999999994      34.696999999999989
   347   1      2.0409999999999995      24.491999999999994      34.696999999999989
   348   1      2.0409999999999995      26.532999999999994      32.655999999999992
   349   1                       0      24.491999999999994      36.737999999999992
   350   1                       0      26.532999999999994      38.778999999999989
   351   1      2.0409999999999995      24.491999999999994      38.778999999999989
   352   1      2.0409999999999995      26.532999999999994      36.737999999999992
   353   1                       0      24.491999999999994      40.819999999999993
   354   1                       0      26.532999999999994       42.86099999999999
   355   1      2.0409999999999995      24.491999999999994       42.86099999999999
   356   1      2.0409999999999995      26.532999999999994      40.819999999999993
   357   1                       0      24.491999999999994      44.901999999999994
   358   1                       0      26.532999999999994      46.942999999999991