(written by ASE)

255 atoms
1 atom types

0.0      16.327999999999999  xlo xhi
0.0      16.327999999999999  ylo yhi
0.0      16.327999999999999  zlo zhi

Masses

     1      107.86819997225152 # Ag

Atoms # atomic

     1   1                       0                       0                       0
     2   1                       0      2.0409999999999999      2.0409999999999999
     3   1      2.0409999999999999                       0      2.0409999999999999
     4   1      2.0409999999999999      2.0409999999999999                       0
     5   1                       0                       0      4.0819999999999999
     6   1                       0      2.0409999999999999      6.1229999999999993
     7   1      2.0409999999999999                       0      6.1229999999999993
     8   1      2.0409999999999999      2.0409999999999999      4.0819999999999999
     9   1                       0                       0      8.1639999999999997
    10   1                       0      2.0409999999999999                  10.205
    11   1      2.0409999999999999                       0                  10.205
    12   1      2.0409999999999999      2.0409999999999999      8.1639999999999997
    13   1                       0                       0      12.245999999999999
    14   1                       0      2.0409999999999999      14.286999999999999
    15   1      2.0409999999999999                       0      14.286999999999999
    16   1      2.0409999999999999      2.0409999999999999      12.245999999999999
    17   1                       0      4.0819999999999999                       0
    18   1                       0      6.1229999999999993      2.0409999999999999
    19   1      2.0409999999999999      4.0819999999999999      2.0409999999999999
    20   1      2.0409999999999999      6.1229999999999993                       0
    21   1                       0      4.0819999999999999      4.0819999999999999
    22   1                       0      6.1229999999999993      6.1229999999999993
    23   1      2.0409999999999999      4.0819999999999999      6.1229999999999993
    24   1      2.0409999999999999      6.1229999999999993      4.0819999999999999
    25   1                       0      4.0819999999999999      8.1639999999999997
    26   1                       0      6.1229999999999993                  10.205
    27   1      2.0409999999999999      4.0819999999999999                  10.205
    28   1      2.0409999999999999      6.1229999999999993      8.1639999999999997
    29   1                       0      4.0819999999999999      12.245999999999999
    30   1                       0      6.1229999999999993      14.286999999999999
    31   1      2.0409999999999999      4.0819999999999999      14.286999999999999
    32   1      2.0409999999999999      6.1229999999999993      12.245999999999999
    33   1                       0      8.1639999999999997                       0
    34   1                       0                  10.205      2.0409999999999999
    35   1      2.0409999999999999      8.1639999999999997      2.0409999999999999
    36   1      2.0409999999999999                  10.205                       0
    37   1                       0      8.1639999999999997      4.0819999999999999
    38   1                       0                  10.205      6.1229999999999993
    39   1      2.0409999999999999      8.1639999999999997      6.1229999999999993
    40   1      2.0409999999999999                  10.205      4.0819999999999999
    41   1                       0      8.1639999999999997      8.1639999999999997
    42   1                       0                  10.205                  10.205
    43   1      2.0409999999999999      8.1639999999999997                  10.205
    44   1      2.0409999999999999                  10.205      8.1639999999999997
    45   1                       0      8.1639999999999997      12.245999999999999
    46   1                       0                  10.205      14.286999999999999
    47   1      2.0409999999999999      8.1639999999999997      14.286999999999999
    48   1      2.0409999999999999                  10.205      12.245999999999999
    49   1                       0      12.245999999999999                       0
    50   1                       0      14.286999999999999      2.0409999999999999
    51   1      2.0409999999999999      12.245999999999999      2.0409999999999999
    52   1      2.0409999999999999      14.286999999999999                       0
    53   1                       0      12.245999999999999      4.0819999999999999
    54   1                       0      14.286999999999999      6.1229999999999993
    55   1      2.0409999999999999      12.245999999999999      6.1229999999999993
    56   1      2.0409999999999999      14.286999999999999      4.0819999999999999
    57   1                       0      12.245999999999999      8.1639999999999997
    58   1                       0      14.286999999999999                  10.205
    59   1      2.0409999999999999      12.245999999999999                  10.205
    60   1      2.0409999999999999      14.286999999999999      8.1639999999999997
    61   1                       0      12.245999999999999      12.245999999999999
    62   1                       0      14.286999999999999      14.286999999999999
    63   1      2.0409999999999999      12.245999999999999      14.286999999999999
    64   1      2.0409999999999999      14.286999999999999      12.245999999999999
    65   1      4.0819999999999999                       0                       0
    66   1      4.0819999999999999      2.0409999999999999      2.0409999999999999
    67   1      6.1229999999999993                       0      2.0409999999999999
    68   1      6.1229999999999993      2.0409999999999999                       0
    69   1      4.0819999999999999                       0      4.0819999999999999
    70   1      4.0819999999999999      2.0409999999999999      6.1229999999999993
    71   1      6.1229999999999993                       0      6.1229999999999993
    72   1      6.1229999999999993      2.0409999999999999      4.0819999999999999
    73   1      4.0819999999999999                       0      8.1639999999999997
    74   1      4.0819999999999999      2.0409999999999999                  10.205
    75   1      6.1229999999999993                       0                  10.205
    76   1      6.1229999999999993      2.0409999999999999      8.1639999999999997
    77   1      4.0819999999999999                       0      12.245999999999999
    78   1      4.0819999999999999      2.0409999999999999      14.286999999999999
    79   1      6.1229999999999993                       0      14.286999999999999
    80   1      6.1229999999999993      2.0409999999999999      12.245999999999999
    81   1      4.0819999999999999      4.0819999999999999                       0
    82   1      4.0819999999999999      6.1229999999999993      2.0409999999999999
    83   1      6.1229999999999993      4.0819999999999999      2.0409999999999999
    84   1      6.1229999999999993      6.1229999999999993                       0
    85   1      4.0819999999999999      4.0819999999999999      4.0819999999999999
    86   1      4.0819999999999999      6.1229999999999993      6.1229999999999993
    87   1      6.1229999999999993      4.0819999999999999      6.1229999999999993
    88   1      6.1229999999999993      6.1229999999999993      4.0819999999999999
    89   1      4.0819999999999999      4.0819999999999999      8.1639999999999997
    90   1      4.0819999999999999      6.1229999999999993                  10.205
    91   1      6.1229999999999993      4.0819999999999999                  10.205
    92   1      6.1229999999999993      6.1229999999999993      8.1639999999999997
    93   1      4.0819999999999999      4.0819999999999999      12.245999999999999
    94   1      4.0819999999999999      6.1229999999999993      14.286999999999999
    95   1      6.1229999999999993      4.0819999999999999      14.286999999999999
    96   1      6.1229999999999993      6.1229999999999993      12.245999999999999
    97   1      4.0819999999999999      8.1639999999999997                       0
    98   1      4.0819999999999999                  10.205      2.0409999999999999
    99   1      6.1229999999999993      8.1639999999999997      2.0409999999999999
   100   1      6.1229999999999993                  10.205                       0
   101   1      4.0819999999999999      8.1639999999999997      4.0819999999999999
   102   1      4.0819999999999999                  10.205      6.1229999999999993
   103   1      6.1229999999999993      8.1639999999999997      6.1229999999999993
   104   1      6.1229999999999993                  10.205      4.0819999999999999
   105   1      4.0819999999999999      8.1639999999999997      8.1639999999999997
   106   1      4.0819999999999999                  10.205                  10.205
   107   1      6.1229999999999993      8.1639999999999997                  10.205
   108   1      6.1229999999999993                  10.205      8.1639999999999997
   109   1      4.0819999999999999      8.1639999999999997      12.245999999999999
   110   1      4.0819999999999999                  10.205      14.286999999999999
   111   1      6.1229999999999993      8.1639999999999997      14.286999999999999
   112   1      6.1229999999999993                  10.205      12.245999999999999
   113   1      4.0819999999999999      12.245999999999999                       0
   114   1      4.0819999999999999      14.286999999999999      2.0409999999999999
   115   1      6.1229999999999993      12.245999999999999      2.0409999999999999
   116   1      6.1229999999999993      14.286999999999999                       0
   117   1      4.0819999999999999      12.245999999999999      4.0819999999999999
   118   1      4.0819999999999999      14.286999999999999      6.1229999999999993
   119   1      6.1229999999999993      12.245999999999999      6.1229999999999993
   120   1      6.1229999999999993      14.286999999999999      4.0819999999999999
   121   1      4.0819999999999999      12.245999999999999      8.1639999999999997
   122   1      4.0819999999999999      14.286999999999999                  10.205
   123   1      6.1229999999999993      12.245999999999999                  10.205
   124   1      6.1229999999999993      14.286999999999999      8.1639999999999997
   125   1      4.0819999999999999      12.245999999999999      12.245999999999999
   126   1      4.0819999999999999      14.286999999999999      14.286999999999999
   127   1      6.1229999999999993      12.245999999999999      14.286999999999999
   128   1      6.1229999999999993      14.286999999999999      12.245999999999999
   129   1      8.1639999999999997                       0                       0
   130   1      8.1639999999999997      2.0409999999999999      2.0409999999999999
   131   1                  10.205                       0      2.0409999999999999
   132   1                  10.205      2.0409999999999999                       0
   133   1      8.1639999999999997                       0      4.0819999999999999
   134   1      8.1639999999999997      2.0409999999999999      6.1229999999999993
   135   1                  10.205                       0      6.1229999999999993
   136   1                  10.205      2.0409999999999999      4.0819999999999999
   137   1      8.1639999999999997                       0      8.1639999999999997
   138   1      8.1639999999999997      2.0409999999999999                  10.205
   139   1                  10.205                       0                  10.205
   140   1                  10.205      2.0409999999999999      8.1639999999999997
   141   1      8.1639999999999997                       0      12.245999999999999
   142   1      8.1639999999999997      2.0409999999999999      14.286999999999999
   143   1                  10.205                       0      14.286999999999999
   144   1                  10.205      2.0409999999999999      12.245999999999999
   145   1      8.1639999999999997      4.0819999999999999                       0
   146   1      8.1639999999999997      6.1229999999999993      2.0409999999999999
   147   1                  10.205      4.0819999999999999      2.0409999999999999
   148   1                  10.205      6.1229999999999993                       0
   149   1      8.1639999999999997      4.0819999999999999      4.0819999999999999
   150   1      8.1639999999999997      6.1229999999999993      6.1229999999999993
   151   1                  10.205      4.0819999999999999      6.1229999999999993
   152   1                  10.205      6.1229999999999993      4.0819999999999999
   153   1      8.1639999999999997      4.0819999999999999      8.1639999999999997
   154   1      8.1639999999999997      6.1229999999999993                  10.205
   155   1                  10.205      4.0819999999999999                  10.205
   156   1                  10.205      6.1229999999999993      8.1639999999999997
   157   1      8.1639999999999997      4.0819999999999999      12.245999999999999
   158   1      8.1639999999999997      6.1229999999999993      14.286999999999999
   159   1                  10.205      4.0819999999999999      14.286999999999999
   160   1                  10.205      6.1229999999999993      12.245999999999999
   161   1      8.1639999999999997      8.1639999999999997                       0
   162   1      8.1639999999999997                  10.205      2.0409999999999999
   163   1                  10.205      8.1639999999999997      2.0409999999999999
   164   1                  10.205                  10.205                       0
   165   1      8.1639999999999997      8.1639999999999997      4.0819999999999999
   166   1      8.1639999999999997                  10.205      6.1229999999999993
   167   1                  10.205      8.1639999999999997      6.1229999999999993
   168   1                  10.205                  10.205      4.0819999999999999
   169   1      8.1639999999999997      8.1639999999999997      8.1639999999999997
   170   1      8.1639999999999997                  10.205                  10.205
   171   1                  10.205      8.1639999999999997                  10.205
   172   1                  10.205                  10.205      8.1639999999999997
   173   1      8.1639999999999997      8.1639999999999997      12.245999999999999
   174   1      8.1639999999999997                  10.205      14.286999999999999
   175   1                  10.205      8.1639999999999997      14.286999999999999
   176   1                  10.205                  10.205      12.245999999999999
   177   1      8.1639999999999997      12.245999999999999                       0
   178   1      8.1639999999999997      14.286999999999999      2.0409999999999999
   179   1                  10.205      12.245999999999999      2.0409999999999999
   180   1                  10.205      14.286999999999999                       0
   181   1      8.1639999999999997      12.245999999999999      4.0819999999999999
   182   1      8.1639999999999997      14.286999999999999      6.1229999999999993
   183   1                  10.205      12.245999999999999      6.1229999999999993
   184   1                  10.205      14.286999999999999      4.0819999999999999
   185   1      8.1639999999999997      12.245999999999999      8.1639999999999997
   186   1      8.1639999999999997      14.286999999999999                  10.205
   187   1                  10.205      12.245999999999999                  10.205
   188   1                  10.205      14.286999999999999      8.1639999999999997
   189   1      8.1639999999999997      12.245999999999999      12.245999999999999
   190   1      8.1639999999999997      14.286999999999999      14.286999999999999
   191   1                  10.205      12.245999999999999      14.286999999999999
   192   1                  10.205      14.286999999999999      12.245999999999999
   193   1      12.245999999999999                       0                       0
   194   1      12.245999999999999      2.0409999999999999      2.0409999999999999
   195   1      14.286999999999999                       0      2.0409999999999999
   196   1      14.286999999999999      2.0409999999999999                       0
   197   1      12.245999999999999                       0      4.0819999999999999
   198   1      12.245999999999999      2.0409999999999999      6.1229999999999993
   199   1      14.286999999999999                       0      6.1229999999999993
   200   1      14.286999999999999      2.0409999999999999      4.0819999999999999
   201   1      12.245999999999999                       0      8.1639999999999997
   202   1      12.245999999999999      2.0409999999999999                  10.205
   203   1      14.286999999999999                       0                  10.205
   204   1      14.286999999999999      2.0409999999999999      8.1639999999999997
   205   1      12.245999999999999                       0      12.245999999999999
   206   1      12.245999999999999      2.0409999999999999      14.286999999999999
   207   1      14.286999999999999                       0      14.286999999999999
   208   1      14.286999999999999      2.0409999999999999      12.245999999999999
   209   1      12.245999999999999      4.0819999999999999                       0
   210   1      12.245999999999999      6.1229999999999993      2.0409999999999999
   211   1      14.286999999999999      4.0819999999999999      2.0409999999999999
   212   1      14.286999999999999      6.1229999999999993                       0
   213   1      12.245999999999999      4.0819999999999999      4.0819999999999999
   214   1      12.245999999999999      6.1229999999999993      6.1229999999999993
   215   1      14.286999999999999      4.0819999999999999      6.1229999999999993
   216   1      14.286999999999999      6.1229999999999993      4.0819999999999999
   217   1      12.245999999999999      4.0819999999999999      8.1639999999999997
   218   1      12.245999999999999      6.1229999999999993                  10.205
   219   1      14.286999999999999      4.0819999999999999                  10.205
   220   1      14.286999999999999      6.1229999999999993      8.1639999999999997
   221   1      12.245999999999999      4.0819999999999999      12.245999999999999
   222   1      12.245999999999999      6.1229999999999993      14.286999999999999
   223   1      14.286999999999999      4.0819999999999999      14.286999999999999
   224   1      14.286999999999999      6.1229999999999993      12.245999999999999
   225   1      12.245999999999999      8.1639999999999997                       0
   226   1      12.245999999999999                  10.205      2.0409999999999999
   227   1      14.286999999999999      8.1639999999999997      2.0409999999999999
   228   1      14.286999999999999                  10.205                       0
   229   1      12.245999999999999      8.1639999999999997      4.0819999999999999
   230   1      12.245999999999999                  10.205      6.1229999999999993
   231   1      14.286999999999999      8.1639999999999997      6.1229999999999993
   232   1      14.286999999999999                  10.205      4.0819999999999999
   233   1      12.245999999999999      8.1639999999999997      8.1639999999999997
   234   1      12.245999999999999                  10.205                  10.205
   235   1      14.286999999999999      8.1639999999999997                  10.205
   236   1      14.286999999999999                  10.205      8.1639999999999997
   237   1      12.245999999999999      8.1639999999999997      12.245999999999999
   238   1      12.245999999999999                  10.205      14.286999999999999
   239   1      14.286999999999999      8.1639999999999997      14.286999999999999
   240   1      14.286999999999999                  10.205      12.245999999999999
   241   1      12.245999999999999      12.245999999999999                       0
   242   1      12.245999999999999      14.286999999999999      2.0409999999999999
   243   1      14.286999999999999      12.245999999999999      2.0409999999999999
   244   1      14.286999999999999      14.286999999999999                       0
   245   1      12.245999999999999      12.245999999999999      4.0819999999999999
   246   1      12.245999999999999      14.286999999999999      6.1229999999999993
   247   1      14.286999999999999      12.245999999999999      6.1229999999999993
   248   1      14.286999999999999      14.286999999999999      4.0819999999999999
   249   1      12.245999999999999      12.245999999999999      8.1639999999999997
   250   1      12.245999999999999      14.286999999999999                  10.205
   251   1      14.286999999999999      12.245999999999999                  10.205
   252   1      14.286999999999999      14.286999999999999      8.1639999999999997
   253   1      12.245999999999999      12.245999999999999      12.245999999999999
   254   1      12.245999999999999      14.286999999999999      14.286999999999999
   255   1      14.286999999999999      12.245999999999999      14.286999999999999
