(written by ASE)

864 atoms
1 atom types

0.0      24.491999999999997  xlo xhi
0.0      24.491999999999997  ylo yhi
0.0      24.491999999999997  zlo zhi

Masses

     1      107.86819997225152 # Ag

Atoms # atomic

     1   1                       0                       0                       0
     2   1                       0      2.0409999999999999      2.0409999999999999
     3   1      2.0409999999999999                       0      2.0409999999999999
     4   1      2.0409999999999999      2.0409999999999999                       0
     5   1                       0                       0      4.0819999999999999
     6   1                       0      2.0409999999999999      6.1229999999999993
     7   1      2.0409999999999999                       0      6.1229999999999993
     8   1      2.0409999999999999      2.0409999999999999      4.0819999999999999
     9   1                       0                       0      8.1639999999999997
    10   1                       0      2.0409999999999999                  10.205
    11   1      2.0409999999999999                       0                  10.205
    12   1      2.0409999999999999      2.0409999999999999      8.1639999999999997
    13   1                       0                       0      12.245999999999999
    14   1                       0      2.0409999999999999      14.286999999999999
    15   1      2.0409999999999999                       0      14.286999999999999
    16   1      2.0409999999999999      2.0409999999999999      12.245999999999999
    17   1                       0                       0      16.327999999999999
    18   1                       0      2.0409999999999999                  18.369
    19   1      2.0409999999999999                       0                  18.369
    20   1      2.0409999999999999      2.0409999999999999      16.327999999999999
    21   1                       0                       0                   20.41
    22   1                       0      2.0409999999999999      22.451000000000001
    23   1      2.0409999999999999                       0      22.451000000000001
    24   1      2.0409999999999999      2.0409999999999999                   20.41
    25   1                       0      4.0819999999999999                       0
    26   1                       0      6.1229999999999993      2.0409999999999999
    27   1      2.0409999999999999      4.0819999999999999      2.0409999999999999
    28   1      2.0409999999999999      6.1229999999999993                       0
    29   1                       0      4.0819999999999999      4.0819999999999999
    30   1                       0      6.1229999999999993      6.1229999999999993
    31   1      2.0409999999999999      4.0819999999999999      6.1229999999999993
    32   1      2.0409999999999999      6.1229999999999993      4.0819999999999999
    33   1                       0      4.0819999999999999      8.1639999999999997
    34   1                       0      6.1229999999999993                  10.205
    35   1      2.0409999999999999      4.0819999999999999                  10.205
    36   1      2.0409999999999999      6.1229999999999993      8.1639999999999997
    37   1                       0      4.0819999999999999      12.245999999999999
    38   1                       0      6.1229999999999993      14.286999999999999
    39   1      2.0409999999999999      4.0819999999999999      14.286999999999999
    40   1      2.0409999999999999      6.1229999999999993      12.245999999999999
    41   1                       0      4.0819999999999999      16.327999999999999
    42   1                       0      6.1229999999999993                  18.369
    43   1      2.0409999999999999      4.0819999999999999                  18.369
    44   1      2.0409999999999999      6.1229999999999993      16.327999999999999
    45   1                       0      4.0819999999999999                   20.41
    46   1                       0      6.1229999999999993      22.451000000000001
    47   1      2.0409999999999999      4.0819999999999999      22.451000000000001
    48   1      2.0409999999999999      6.1229999999999993                   20.41
    49   1                       0      8.1639999999999997                       0
    50   1                       0                  10.205      2.0409999999999999
    51   1      2.0409999999999999      8.1639999999999997      2.0409999999999999
    52   1      2.0409999999999999                  10.205                       0
    53   1                       0      8.1639999999999997      4.0819999999999999
    54   1                       0                  10.205      6.1229999999999993
    55   1      2.0409999999999999      8.1639999999999997      6.1229999999999993
    56   1      2.0409999999999999                  10.205      4.0819999999999999
    57   1                       0      8.1639999999999997      8.1639999999999997
    58   1                       0                  10.205                  10.205
    59   1      2.0409999999999999      8.1639999999999997                  10.205
    60   1      2.0409999999999999                  10.205      8.1639999999999997
    61   1                       0      8.1639999999999997      12.245999999999999
    62   1                       0                  10.205      14.286999999999999
    63   1      2.0409999999999999      8.1639999999999997      14.286999999999999
    64   1      2.0409999999999999                  10.205      12.245999999999999
    65   1                       0      8.1639999999999997      16.327999999999999
    66   1                       0                  10.205                  18.369
    67   1      2.0409999999999999      8.1639999999999997                  18.369
    68   1      2.0409999999999999                  10.205      16.327999999999999
    69   1                       0      8.1639999999999997                   20.41
    70   1                       0                  10.205      22.451000000000001
    71   1      2.0409999999999999      8.1639999999999997      22.451000000000001
    72   1      2.0409999999999999                  10.205                   20.41
    73   1                       0      12.245999999999999                       0
    74   1                       0      14.286999999999999      2.0409999999999999
    75   1      2.0409999999999999      12.245999999999999      2.0409999999999999
    76   1      2.0409999999999999      14.286999999999999                       0
    77   1                       0      12.245999999999999      4.0819999999999999
    78   1                       0      14.286999999999999      6.1229999999999993
    79   1      2.0409999999999999      12.245999999999999      6.1229999999999993
    80   1      2.0409999999999999      14.286999999999999      4.0819999999999999
    81   1                       0      12.245999999999999      8.1639999999999997
    82   1                       0      14.286999999999999                  10.205
    83   1      2.0409999999999999      12.245999999999999                  10.205
    84   1      2.0409999999999999      14.286999999999999      8.1639999999999997
    85   1                       0      12.245999999999999      12.245999999999999
    86   1                       0      14.286999999999999      14.286999999999999
    87   1      2.0409999999999999      12.245999999999999      14.286999999999999
    88   1      2.0409999999999999      14.286999999999999      12.245999999999999
    89   1                       0      12.245999999999999      16.327999999999999
    90   1                       0      14.286999999999999                  18.369
    91   1      2.0409999999999999      12.245999999999999                  18.369
    92   1      2.0409999999999999      14.286999999999999      16.327999999999999
    93   1                       0      12.245999999999999                   20.41
    94   1                       0      14.286999999999999      22.451000000000001
    95   1      2.0409999999999999      12.245999999999999      22.451000000000001
    96   1      2.0409999999999999      14.286999999999999                   20.41
    97   1                       0      16.327999999999999                       0
    98   1                       0                  18.369      2.0409999999999999
    99   1      2.0409999999999999      16.327999999999999      2.0409999999999999
   100   1      2.0409999999999999                  18.369                       0
   101   1                       0      16.327999999999999      4.0819999999999999
   102   1                       0                  18.369      6.1229999999999993
   103   1      2.0409999999999999      16.327999999999999      6.1229999999999993
   104   1      2.0409999999999999                  18.369      4.0819999999999999
   105   1                       0      16.327999999999999      8.1639999999999997
   106   1                       0                  18.369                  10.205
   107   1      2.0409999999999999      16.327999999999999                  10.205
   108   1      2.0409999999999999                  18.369      8.1639999999999997
   109   1                       0      16.327999999999999      12.245999999999999
   110   1                       0                  18.369      14.286999999999999
   111   1      2.0409999999999999      16.327999999999999      14.286999999999999
   112   1      2.0409999999999999                  18.369      12.245999999999999
   113   1                       0      16.327999999999999      16.327999999999999
   114   1                       0                  18.369                  18.369
   115   1      2.0409999999999999      16.327999999999999                  18.369
   116   1      2.0409999999999999                  18.369      16.327999999999999
   117   1                       0      16.327999999999999                   20.41
   118   1                       0                  18.369      22.451000000000001
   119   1      2.0409999999999999      16.327999999999999      22.451000000000001
   120   1      2.0409999999999999                  18.369                   20.41
   121   1                       0                   20.41                       0
   122   1                       0      22.451000000000001      2.0409999999999999
   123   1      2.0409999999999999                   20.41      2.0409999999999999
   124   1      2.0409999999999999      22.451000000000001                       0
   125   1                       0                   20.41      4.0819999999999999
   126   1                       0      22.451000000000001      6.1229999999999993
   127   1      2.0409999999999999                   20.41      6.1229999999999993
   128   1      2.0409999999999999      22.451000000000001      4.0819999999999999
   129   1                       0                   20.41      8.1639999999999997
   130   1                       0      22.451000000000001                  10.205
   131   1      2.0409999999999999                   20.41                  10.205
   132   1      2.0409999999999999      22.451000000000001      8.1639999999999997
   133   1                       0                   20.41      12.245999999999999
   134   1                       0      22.451000000000001      14.286999999999999
   135   1      2.0409999999999999                   20.41      14.286999999999999
   136   1      2.0409999999999999      22.451000000000001      12.245999999999999
   137   1                       0                   20.41      16.327999999999999
   138   1                       0      22.451000000000001                  18.369
   139   1      2.0409999999999999                   20.41                  18.369
   140   1      2.0409999999999999      22.451000000000001      16.327999999999999
   141   1                       0                   20.41                   20.41
   142   1                       0      22.451000000000001      22.451000000000001
   143   1      2.0409999999999999                   20.41      22.451000000000001
   144   1      2.0409999999999999      22.451000000000001                   20.41
   145   1      4.0819999999999999                       0                       0
   146   1      4.0819999999999999      2.0409999999999999      2.0409999999999999
   147   1      6.1229999999999993                       0      2.0409999999999999
   148   1      6.1229999999999993      2.0409999999999999                       0
   149   1      4.0819999999999999                       0      4.0819999999999999
   150   1      4.0819999999999999      2.0409999999999999      6.1229999999999993
   151   1      6.1229999999999993                       0      6.1229999999999993
   152   1      6.1229999999999993      2.0409999999999999      4.0819999999999999
   153   1      4.0819999999999999                       0      8.1639999999999997
   154   1      4.0819999999999999      2.0409999999999999                  10.205
   155   1      6.1229999999999993                       0                  10.205
   156   1      6.1229999999999993      2.0409999999999999      8.1639999999999997
   157   1      4.0819999999999999                       0      12.245999999999999
   158   1      4.0819999999999999      2.0409999999999999      14.286999999999999
   159   1      6.1229999999999993                       0      14.286999999999999
   160   1      6.1229999999999993      2.0409999999999999      12.245999999999999
   161   1      4.0819999999999999                       0      16.327999999999999
   162   1      4.0819999999999999      2.0409999999999999                  18.369
   163   1      6.1229999999999993                       0                  18.369
   164   1      6.1229999999999993      2.0409999999999999      16.327999999999999
   165   1      4.0819999999999999                       0                   20.41
   166   1      4.0819999999999999      2.0409999999999999      22.451000000000001
   167   1      6.1229999999999993                       0      22.451000000000001
   168   1      6.1229999999999993      2.0409999999999999                   20.41
   169   1      4.0819999999999999      4.0819999999999999                       0
   170   1      4.0819999999999999      6.1229999999999993      2.0409999999999999
   171   1      6.1229999999999993      4.0819999999999999      2.0409999999999999
   172   1      6.1229999999999993      6.1229999999999993                       0
   173   1      4.0819999999999999      4.0819999999999999      4.0819999999999999
   174   1      4.0819999999999999      6.1229999999999993      6.1229999999999993
   175   1      6.1229999999999993      4.0819999999999999      6.1229999999999993
   176   1      6.1229999999999993      6.1229999999999993      4.0819999999999999
   177   1      4.0819999999999999      4.0819999999999999      8.1639999999999997
   178   1      4.0819999999999999      6.1229999999999993                  10.205
   179   1      6.1229999999999993      4.0819999999999999                  10.205
   180   1      6.1229999999999993      6.1229999999999993      8.1639999999999997
   181   1      4.0819999999999999      4.0819999999999999      12.245999999999999
   182   1      4.0819999999999999      6.1229999999999993      14.286999999999999
   183   1      6.1229999999999993      4.0819999999999999      14.286999999999999
   184   1      6.1229999999999993      6.1229999999999993      12.245999999999999
   185   1      4.0819999999999999      4.0819999999999999      16.327999999999999
   186   1      4.0819999999999999      6.1229999999999993                  18.369
   187   1      6.1229999999999993      4.0819999999999999                  18.369
   188   1      6.1229999999999993      6.1229999999999993      16.327999999999999
   189   1      4.0819999999999999      4.0819999999999999                   20.41
   190   1      4.0819999999999999      6.1229999999999993      22.451000000000001
   191   1      6.1229999999999993      4.0819999999999999      22.451000000000001
   192   1      6.1229999999999993      6.1229999999999993                   20.41
   193   1      4.0819999999999999      8.1639999999999997                       0
   194   1      4.0819999999999999                  10.205      2.0409999999999999
   195   1      6.1229999999999993      8.1639999999999997      2.0409999999999999
   196   1      6.1229999999999993                  10.205                       0
   197   1      4.0819999999999999      8.1639999999999997      4.0819999999999999
   198   1      4.0819999999999999                  10.205      6.1229999999999993
   199   1      6.1229999999999993      8.1639999999999997      6.1229999999999993
   200   1      6.1229999999999993                  10.205      4.0819999999999999
   201   1      4.0819999999999999      8.1639999999999997      8.1639999999999997
   202   1      4.0819999999999999                  10.205                  10.205
   203   1      6.1229999999999993      8.1639999999999997                  10.205
   204   1      6.1229999999999993                  10.205      8.1639999999999997
   205   1      4.0819999999999999      8.1639999999999997      12.245999999999999
   206   1      4.0819999999999999                  10.205      14.286999999999999
   207   1      6.1229999999999993      8.1639999999999997      14.286999999999999
   208   1      6.1229999999999993                  10.205      12.245999999999999
   209   1      4.0819999999999999      8.1639999999999997      16.327999999999999
   210   1      4.0819999999999999                  10.205                  18.369
   211   1      6.1229999999999993      8.1639999999999997                  18.369
   212   1      6.1229999999999993                  10.205      16.327999999999999
   213   1      4.0819999999999999      8.1639999999999997                   20.41
   214   1      4.0819999999999999                  10.205      22.451000000000001
   215   1      6.1229999999999993      8.1639999999999997      22.451000000000001
   216   1      6.1229999999999993                  10.205                   20.41
   217   1      4.0819999999999999      12.245999999999999                       0
   218   1      4.0819999999999999      14.286999999999999      2.0409999999999999
   219   1      6.1229999999999993      12.245999999999999      2.0409999999999999
   220   1      6.1229999999999993      14.286999999999999                       0
   221   1      4.0819999999999999      12.245999999999999      4.0819999999999999
   222   1      4.0819999999999999      14.286999999999999      6.1229999999999993
   223   1      6.1229999999999993      12.245999999999999      6.1229999999999993
   224   1      6.1229999999999993      14.286999999999999      4.0819999999999999
   225   1      4.0819999999999999      12.245999999999999      8.1639999999999997
   226   1      4.0819999999999999      14.286999999999999                  10.205
   227   1      6.1229999999999993      12.245999999999999                  10.205
   228   1      6.1229999999999993      14.286999999999999      8.1639999999999997
   229   1      4.0819999999999999      12.245999999999999      12.245999999999999
   230   1      4.0819999999999999      14.286999999999999      14.286999999999999
   231   1      6.1229999999999993      12.245999999999999      14.286999999999999
   232   1      6.1229999999999993      14.286999999999999      12.245999999999999
   233   1      4.0819999999999999      12.245999999999999      16.327999999999999
   234   1      4.0819999999999999      14.286999999999999                  18.369
   235   1      6.1229999999999993      12.245999999999999                  18.369
   236   1      6.1229999999999993      14.286999999999999      16.327999999999999
   237   1      4.0819999999999999      12.245999999999999                   20.41
   238   1      4.0819999999999999      14.286999999999999      22.451000000000001
   239   1      6.1229999999999993      12.245999999999999      22.451000000000001
   240   1      6.1229999999999993      14.286999999999999                   20.41
   241   1      4.0819999999999999      16.327999999999999                       0
   242   1      4.0819999999999999                  18.369      2.0409999999999999
   243   1      6.1229999999999993      16.327999999999999      2.0409999999999999
   244   1      6.1229999999999993                  18.369                       0
   245   1      4.0819999999999999      16.327999999999999      4.0819999999999999
   246   1      4.0819999999999999                  18.369      6.1229999999999993
   247   1      6.1229999999999993      16.327999999999999      6.1229999999999993
   248   1      6.1229999999999993                  18.369      4.0819999999999999
   249   1      4.0819999999999999      16.327999999999999      8.1639999999999997
   250   1      4.0819999999999999                  18.369                  10.205
   251   1      6.1229999999999993      16.327999999999999                  10.205
   252   1      6.1229999999999993                  18.369      8.1639999999999997
   253   1      4.0819999999999999      16.327999999999999      12.245999999999999
   254   1      4.0819999999999999                  18.369      14.286999999999999
   255   1      6.1229999999999993      16.327999999999999      14.286999999999999
   256   1      6.1229999999999993                  18.369      12.245999999999999
   257   1      4.0819999999999999      16.327999999999999      16.327999999999999
   258   1      4.0819999999999999                  18.369                  18.369
   259   1      6.1229999999999993      16.327999999999999                  18.369
   260   1      6.1229999999999993                  18.369      16.327999999999999
   261   1      4.0819999999999999      16.327999999999999                   20.41
   262   1      4.0819999999999999                  18.369      22.451000000000001
   263   1      6.1229999999999993      16.327999999999999      22.451000000000001
   264   1      6.1229999999999993                  18.369                   20.41
   265   1      4.0819999999999999                   20.41                       0
   266   1      4.0819999999999999      22.451000000000001      2.0409999999999999
   267   1      6.1229999999999993                   20.41      2.0409999999999999
   268   1      6.1229999999999993      22.451000000000001                       0
   269   1      4.0819999999999999                   20.41      4.0819999999999999
   270   1      4.0819999999999999      22.451000000000001      6.1229999999999993
   271   1      6.1229999999999993                   20.41      6.1229999999999993
   272   1      6.1229999999999993      22.451000000000001      4.0819999999999999
   273   1      4.0819999999999999                   20.41      8.1639999999999997
   274   1      4.0819999999999999      22.451000000000001                  10.205
   275   1      6.1229999999999993                   20.41                  10.205
   276   1      6.1229999999999993      22.451000000000001      8.1639999999999997
   277   1      4.0819999999999999                   20.41      12.245999999999999
   278   1      4.0819999999999999      22.451000000000001      14.286999999999999
   279   1      6.1229999999999993                   20.41      14.286999999999999
   280   1      6.1229999999999993      22.451000000000001      12.245999999999999
   281   1      4.0819999999999999                   20.41      16.327999999999999
   282   1      4.0819999999999999      22.451000000000001                  18.369
   283   1      6.1229999999999993                   20.41                  18.369
   284   1      6.1229999999999993      22.451000000000001      16.327999999999999
   285   1      4.0819999999999999                   20.41                   20.41
   286   1      4.0819999999999999      22.451000000000001      22.451000000000001
   287   1      6.1229999999999993                   20.41      22.451000000000001
   288   1      6.1229999999999993      22.451000000000001                   20.41
   289   1      8.1639999999999997                       0                       0
   290   1      8.1639999999999997      2.0409999999999999      2.0409999999999999
   291   1                  10.205                       0      2.0409999999999999
   292   1                  10.205      2.0409999999999999                       0
   293   1      8.1639999999999997                       0      4.0819999999999999
   294   1      8.1639999999999997      2.0409999999999999      6.1229999999999993
   295   1                  10.205                       0      6.1229999999999993
   296   1                  10.205      2.0409999999999999      4.0819999999999999
   297   1      8.1639999999999997                       0      8.1639999999999997
   298   1      8.1639999999999997      2.0409999999999999                  10.205
   299   1                  10.205                       0                  10.205
   300   1                  10.205      2.0409999999999999      8.1639999999999997
   301   1      8.1639999999999997                       0      12.245999999999999
   302   1      8.1639999999999997      2.0409999999999999      14.286999999999999
   303   1                  10.205                       0      14.286999999999999
   304   1                  10.205      2.0409999999999999      12.245999999999999
   305   1      8.1639999999999997                       0      16.327999999999999
   306   1      8.1639999999999997      2.0409999999999999                  18.369
   307   1                  10.205                       0                  18.369
   308   1                  10.205      2.0409999999999999      16.327999999999999
   309   1      8.1639999999999997                       0                   20.41
   310   1      8.1639999999999997      2.0409999999999999      22.451000000000001
   311   1                  10.205                       0      22.451000000000001
   312   1                  10.205      2.0409999999999999                   20.41
   313   1      8.1639999999999997      4.0819999999999999                       0
   314   1      8.1639999999999997      6.1229999999999993      2.0409999999999999
   315   1                  10.205      4.0819999999999999      2.0409999999999999
   316   1                  10.205      6.1229999999999993                       0
   317   1      8.1639999999999997      4.0819999999999999      4.0819999999999999
   318   1      8.1639999999999997      6.1229999999999993      6.1229999999999993
   319   1                  10.205      4.0819999999999999      6.1229999999999993
   320   1                  10.205      6.1229999999999993      4.0819999999999999
   321   1      8.1639999999999997      4.0819999999999999      8.1639999999999997
   322   1      8.1639999999999997      6.1229999999999993                  10.205
   323   1                  10.205      4.0819999999999999                  10.205
   324   1                  10.205      6.1229999999999993      8.1639999999999997
   325   1      8.1639999999999997      4.0819999999999999      12.245999999999999
   326   1      8.1639999999999997      6.1229999999999993      14.286999999999999
   327   1                  10.205      4.0819999999999999      14.286999999999999
   328   1                  10.205      6.1229999999999993      12.245999999999999
   329   1      8.1639999999999997      4.0819999999999999      16.327999999999999
   330   1      8.1639999999999997      6.1229999999999993                  18.369
   331   1                  10.205      4.0819999999999999                  18.369
   332   1                  10.205      6.1229999999999993      16.327999999999999
   333   1      8.1639999999999997      4.0819999999999999                   20.41
   334   1      8.1639999999999997      6.1229999999999993      22.451000000000001
   335   1                  10.205      4.0819999999999999      22.451000000000001
   336   1                  10.205      6.1229999999999993                   20.41
   337   1      8.1639999999999997      8.1639999999999997                       0
   338   1      8.1639999999999997                  10.205      2.0409999999999999
   339   1                  10.205      8.1639999999999997      2.0409999999999999
   340   1                  10.205                  10.205                       0
   341   1      8.1639999999999997      8.1639999999999997      4.0819999999999999
   342   1      8.1639999999999997                  10.205      6.1229999999999993
   343   1                  10.205      8.1639999999999997      6.1229999999999993
   344   1                  10.205                  10.205      4.0819999999999999
   345   1      8.1639999999999997      8.1639999999999997      8.1639999999999997
   346   1      8.1639999999999997                  10.205                  10.205
   347   1                  10.205      8.1639999999999997                  10.205
   348   1                  10.205                  10.205      8.1639999999999997
   349   1      8.1639999999999997      8.1639999999999997      12.245999999999999
   350   1      8.1639999999999997                  10.205      14.286999999999999
   351   1                  10.205      8.1639999999999997      14.286999999999999
   352   1                  10.205                  10.205      12.245999999999999
   353   1      8.1639999999999997      8.1639999999999997      16.327999999999999
   354   1      8.1639999999999997                  10.205                  18.369
   355   1                  10.205      8.1639999999999997                  18.369
   356   1                  10.205                  10.205      16.327999999999999
   357   1      8.1639999999999997      8.1639999999999997                   20.41
   358   1      8.1639999999999997                  10.205      22.451000000000001