(written by ASE)

31 atoms
1 atom types

0.0      8.1639999999999997  xlo xhi
0.0      8.1639999999999997  ylo yhi
0.0      8.1639999999999997  zlo zhi

Masses

     1      107.86819997225152 # Ag

Atoms # atomic

     1   1                       0                       0                       0
     2   1                       0      2.0409999999999999      2.0409999999999999
     3   1      2.0409999999999999                       0      2.0409999999999999
     4   1      2.0409999999999999      2.0409999999999999                       0
     5   1                       0                       0      4.0819999999999999
     6   1                       0      2.0409999999999999      6.1229999999999993
     7   1      2.0409999999999999                       0      6.1229999999999993
     8   1      2.0409999999999999      2.0409999999999999      4.0819999999999999
     9   1                       0      4.0819999999999999                       0
    10   1                       0      6.1229999999999993      2.0409999999999999
    11   1      2.0409999999999999      4.0819999999999999      2.0409999999999999
    12   1      2.0409999999999999      6.1229999999999993                       0
    13   1                       0      4.0819999999999999      4.0819999999999999
    14   1                       0      6.1229999999999993      6.1229999999999993
    15   1      2.0409999999999999      4.0819999999999999      6.1229999999999993
    16   1      2.0409999999999999      6.1229999999999993      4.0819999999999999
    17   1      4.0819999999999999                       0                       0
    18   1      4.0819999999999999      2.0409999999999999      2.0409999999999999
    19   1      6.1229999999999993                       0      2.0409999999999999
    20   1      6.1229999999999993      2.0409999999999999                       0
    21   1      4.0819999999999999                       0      4.0819999999999999
    22   1      4.0819999999999999      2.0409999999999999      6.1229999999999993
    23   1      6.1229999999999993                       0      6.1229999999999993
    24   1      6.1229999999999993      2.0409999999999999      4.0819999999999999
    25   1      4.0819999999999999      4.0819999999999999                       0
    26   1      4.0819999999999999      6.1229999999999993      2.0409999999999999
    27   1      6.1229999999999993      4.0819999999999999      2.0409999999999999
    28   1      6.1229999999999993      6.1229999999999993                       0
    29   1      4.0819999999999999      4.0819999999999999      4.0819999999999999
    30   1      4.0819999999999999      6.1229999999999993      6.1229999999999993
    31   1      6.1229999999999993      4.0819999999999999      6.1229999999999993
