(written by ASE)

108 atoms
1 atom types

0.0      12.245999999999999  xlo xhi
0.0      12.245999999999999  ylo yhi
0.0      12.245999999999999  zlo zhi

Masses

     1      107.86819997225152 # Ag

Atoms # atomic

     1   1                       0                       0                       0
     2   1                       0      2.0409999999999999      2.0409999999999999
     3   1      2.0409999999999999                       0      2.0409999999999999
     4   1      2.0409999999999999      2.0409999999999999                       0
     5   1                       0                       0      4.0819999999999999
     6   1                       0      2.0409999999999999      6.1229999999999993
     7   1      2.0409999999999999                       0      6.1229999999999993
     8   1      2.0409999999999999      2.0409999999999999      4.0819999999999999
     9   1                       0                       0      8.1639999999999997
    10   1                       0      2.0409999999999999                  10.205
    11   1      2.0409999999999999                       0                  10.205
    12   1      2.0409999999999999      2.0409999999999999      8.1639999999999997
    13   1                       0      4.0819999999999999                       0
    14   1                       0      6.1229999999999993      2.0409999999999999
    15   1      2.0409999999999999      4.0819999999999999      2.0409999999999999
    16   1      2.0409999999999999      6.1229999999999993                       0
    17   1                       0      4.0819999999999999      4.0819999999999999
    18   1                       0      6.1229999999999993      6.1229999999999993
    19   1      2.0409999999999999      4.0819999999999999      6.1229999999999993
    20   1      2.0409999999999999      6.1229999999999993      4.0819999999999999
    21   1                       0      4.0819999999999999      8.1639999999999997
    22   1                       0      6.1229999999999993                  10.205
    23   1      2.0409999999999999      4.0819999999999999                  10.205
    24   1      2.0409999999999999      6.1229999999999993      8.1639999999999997
    25   1                       0      8.1639999999999997                       0
    26   1                       0                  10.205      2.0409999999999999
    27   1      2.0409999999999999      8.1639999999999997      2.0409999999999999
    28   1      2.0409999999999999                  10.205                       0
    29   1                       0      8.1639999999999997      4.0819999999999999
    30   1                       0                  10.205      6.1229999999999993
    31   1      2.0409999999999999      8.1639999999999997      6.1229999999999993
    32   1      2.0409999999999999                  10.205      4.0819999999999999
    33   1                       0      8.1639999999999997      8.1639999999999997
    34   1                       0                  10.205                  10.205
    35   1      2.0409999999999999      8.1639999999999997                  10.205
    36   1      2.0409999999999999                  10.205      8.1639999999999997
    37   1      4.0819999999999999                       0                       0
    38   1      4.0819999999999999      2.0409999999999999      2.0409999999999999
    39   1      6.1229999999999993                       0      2.0409999999999999
    40   1      6.1229999999999993      2.0409999999999999                       0
    41   1      4.0819999999999999                       0      4.0819999999999999
    42   1      4.0819999999999999      2.0409999999999999      6.1229999999999993
    43   1      6.1229999999999993                       0      6.1229999999999993
    44   1      6.1229999999999993      2.0409999999999999      4.0819999999999999
    45   1      4.0819999999999999                       0      8.1639999999999997
    46   1      4.0819999999999999      2.0409999999999999                  10.205
    47   1      6.1229999999999993                       0                  10.205
    48   1      6.1229999999999993      2.0409999999999999      8.1639999999999997
    49   1      4.0819999999999999      4.0819999999999999                       0
    50   1      4.0819999999999999      6.1229999999999993      2.0409999999999999
    51   1      6.1229999999999993      4.0819999999999999      2.0409999999999999
    52   1      6.1229999999999993      6.1229999999999993                       0
    53   1      4.0819999999999999      4.0819999999999999      4.0819999999999999
    54   1      4.0819999999999999      6.1229999999999993      6.1229999999999993
    55   1      6.1229999999999993      4.0819999999999999      6.1229999999999993
    56   1      6.1229999999999993      6.1229999999999993      4.0819999999999999
    57   1      4.0819999999999999      4.0819999999999999      8.1639999999999997
    58   1      4.0819999999999999      6.1229999999999993                  10.205
    59   1      6.1229999999999993      4.0819999999999999                  10.205
    60   1      6.1229999999999993      6.1229999999999993      8.1639999999999997
    61   1      4.0819999999999999      8.1639999999999997                       0
    62   1      4.0819999999999999                  10.205      2.0409999999999999
    63   1      6.1229999999999993      8.1639999999999997      2.0409999999999999
    64   1      6.1229999999999993                  10.205                       0
    65   1      4.0819999999999999      8.1639999999999997      4.0819999999999999
    66   1      4.0819999999999999                  10.205      6.1229999999999993
    67   1      6.1229999999999993      8.1639999999999997      6.1229999999999993
    68   1      6.1229999999999993                  10.205      4.0819999999999999
    69   1      4.0819999999999999      8.1639999999999997      8.1639999999999997
    70   1      4.0819999999999999                  10.205                  10.205
    71   1      6.1229999999999993      8.1639999999999997                  10.205
    72   1      6.1229999999999993                  10.205      8.1639999999999997
    73   1      8.1639999999999997                       0                       0
    74   1      8.1639999999999997      2.0409999999999999      2.0409999999999999
    75   1                  10.205                       0      2.0409999999999999
    76   1                  10.205      2.0409999999999999                       0
    77   1      8.1639999999999997                       0      4.0819999999999999
    78   1      8.1639999999999997      2.0409999999999999      6.1229999999999993
    79   1                  10.205                       0      6.1229999999999993
    80   1                  10.205      2.0409999999999999      4.0819999999999999
    81   1      8.1639999999999997                       0      8.1639999999999997
    82   1      8.1639999999999997      2.0409999999999999                  10.205
    83   1                  10.205                       0                  10.205
    84   1                  10.205      2.0409999999999999      8.1639999999999997
    85   1      8.1639999999999997      4.0819999999999999                       0
    86   1      8.1639999999999997      6.1229999999999993      2.0409999999999999
    87   1                  10.205      4.0819999999999999      2.0409999999999999
    88   1                  10.205      6.1229999999999993                       0
    89   1      8.1639999999999997      4.0819999999999999      4.0819999999999999
    90   1      8.1639999999999997      6.1229999999999993      6.1229999999999993
    91   1                  10.205      4.0819999999999999      6.1229999999999993
    92   1                  10.205      6.1229999999999993      4.0819999999999999
    93   1      8.1639999999999997      4.0819999999999999      8.1639999999999997
    94   1      8.1639999999999997      6.1229999999999993                  10.205
    95   1                  10.205      4.0819999999999999                  10.205
    96   1                  10.205      6.1229999999999993      8.1639999999999997
    97   1      8.1639999999999997      8.1639999999999997                       0
    98   1      8.1639999999999997                  10.205      2.0409999999999999
    99   1                  10.205      8.1639999999999997      2.0409999999999999
   100   1                  10.205                  10.205                       0
   101   1      8.1639999999999997      8.1639999999999997      4.0819999999999999
   102   1      8.1639999999999997                  10.205      6.1229999999999993
   103   1                  10.205      8.1639999999999997      6.1229999999999993
   104   1                  10.205                  10.205      4.0819999999999999
   105   1      8.1639999999999997      8.1639999999999997      8.1639999999999997
   106   1      8.1639999999999997                  10.205                  10.205
   107   1                  10.205      8.1639999999999997                  10.205
   108   1                  10.205                  10.205      8.1639999999999997
