(written by ASE)

1371 atoms
1 atom types

0.0      28.573999999999998  xlo xhi
0.0      28.573999999999998  ylo yhi
0.0      28.573999999999998  zlo zhi

Masses

     1      107.86819997225152 # Ag

Atoms # atomic

     1   1                       0                       0                       0
     2   1                       0      2.0409999999999999      2.0409999999999999
     3   1      2.0409999999999999                       0      2.0409999999999999
     4   1      2.0409999999999999      2.0409999999999999                       0
     5   1                       0                       0      4.0819999999999999
     6   1                       0      2.0409999999999999      6.1229999999999993
     7   1      2.0409999999999999                       0      6.1229999999999993
     8   1      2.0409999999999999      2.0409999999999999      4.0819999999999999
     9   1                       0                       0      8.1639999999999997
    10   1                       0      2.0409999999999999                  10.205
    11   1      2.0409999999999999                       0                  10.205
    12   1      2.0409999999999999      2.0409999999999999      8.1639999999999997
    13   1                       0                       0      12.245999999999999
    14   1                       0      2.0409999999999999      14.286999999999999
    15   1      2.0409999999999999                       0      14.286999999999999
    16   1      2.0409999999999999      2.0409999999999999      12.245999999999999
    17   1                       0                       0      16.327999999999999
    18   1                       0      2.0409999999999999                  18.369
    19   1      2.0409999999999999                       0                  18.369
    20   1      2.0409999999999999      2.0409999999999999      16.327999999999999
    21   1                       0                       0                   20.41
    22   1                       0      2.0409999999999999      22.451000000000001
    23   1      2.0409999999999999                       0      22.451000000000001
    24   1      2.0409999999999999      2.0409999999999999                   20.41
    25   1                       0                       0      24.491999999999997
    26   1                       0      2.0409999999999999      26.532999999999998
    27   1      2.0409999999999999                       0      26.532999999999998
    28   1      2.0409999999999999      2.0409999999999999      24.491999999999997
    29   1                       0      4.0819999999999999                       0
    30   1                       0      6.1229999999999993      2.0409999999999999
    31   1      2.0409999999999999      4.0819999999999999      2.0409999999999999
    32   1      2.0409999999999999      6.1229999999999993                       0
    33   1                       0      4.0819999999999999      4.0819999999999999
    34   1                       0      6.1229999999999993      6.1229999999999993
    35   1      2.0409999999999999      4.0819999999999999      6.1229999999999993
    36   1      2.0409999999999999      6.1229999999999993      4.0819999999999999
    37   1                       0      4.0819999999999999      8.1639999999999997
    38   1                       0      6.1229999999999993                  10.205
    39   1      2.0409999999999999      4.0819999999999999                  10.205
    40   1      2.0409999999999999      6.1229999999999993      8.1639999999999997
    41   1                       0      4.0819999999999999      12.245999999999999
    42   1                       0      6.1229999999999993      14.286999999999999
    43   1      2.0409999999999999      4.0819999999999999      14.286999999999999
    44   1      2.0409999999999999      6.1229999999999993      12.245999999999999
    45   1                       0      4.0819999999999999      16.327999999999999
    46   1                       0      6.1229999999999993                  18.369
    47   1      2.0409999999999999      4.0819999999999999                  18.369
    48   1      2.0409999999999999      6.1229999999999993      16.327999999999999
    49   1                       0      4.0819999999999999                   20.41
    50   1                       0      6.1229999999999993      22.451000000000001
    51   1      2.0409999999999999      4.0819999999999999      22.451000000000001
    52   1      2.0409999999999999      6.1229999999999993                   20.41
    53   1                       0      4.0819999999999999      24.491999999999997
    54   1                       0      6.1229999999999993      26.532999999999998
    55   1      2.0409999999999999      4.0819999999999999      26.532999999999998
    56   1      2.0409999999999999      6.1229999999999993      24.491999999999997
    57   1                       0      8.1639999999999997                       0
    58   1                       0                  10.205      2.0409999999999999
    59   1      2.0409999999999999      8.1639999999999997      2.0409999999999999
    60   1      2.0409999999999999                  10.205                       0
    61   1                       0      8.1639999999999997      4.0819999999999999
    62   1                       0                  10.205      6.1229999999999993
    63   1      2.0409999999999999      8.1639999999999997      6.1229999999999993
    64   1      2.0409999999999999                  10.205      4.0819999999999999
    65   1                       0      8.1639999999999997      8.1639999999999997
    66   1                       0                  10.205                  10.205
    67   1      2.0409999999999999      8.1639999999999997                  10.205
    68   1      2.0409999999999999                  10.205      8.1639999999999997
    69   1                       0      8.1639999999999997      12.245999999999999
    70   1                       0                  10.205      14.286999999999999
    71   1      2.0409999999999999      8.1639999999999997      14.286999999999999
    72   1      2.0409999999999999                  10.205      12.245999999999999
    73   1                       0      8.1639999999999997      16.327999999999999
    74   1                       0                  10.205                  18.369
    75   1      2.0409999999999999      8.1639999999999997                  18.369
    76   1      2.0409999999999999                  10.205      16.327999999999999
    77   1                       0      8.1639999999999997                   20.41
    78   1                       0                  10.205      22.451000000000001
    79   1      2.0409999999999999      8.1639999999999997      22.451000000000001
    80   1      2.0409999999999999                  10.205                   20.41
    81   1                       0      8.1639999999999997      24.491999999999997
    82   1                       0                  10.205      26.532999999999998
    83   1      2.0409999999999999      8.1639999999999997      26.532999999999998
    84   1      2.0409999999999999                  10.205      24.491999999999997
    85   1                       0      12.245999999999999                       0
    86   1                       0      14.286999999999999      2.0409999999999999
    87   1      2.0409999999999999      12.245999999999999      2.0409999999999999
    88   1      2.0409999999999999      14.286999999999999                       0
    89   1                       0      12.245999999999999      4.0819999999999999
    90   1                       0      14.286999999999999      6.1229999999999993
    91   1      2.0409999999999999      12.245999999999999      6.1229999999999993
    92   1      2.0409999999999999      14.286999999999999      4.0819999999999999
    93   1                       0      12.245999999999999      8.1639999999999997
    94   1                       0      14.286999999999999                  10.205
    95   1      2.0409999999999999      12.245999999999999                  10.205
    96   1      2.0409999999999999      14.286999999999999      8.1639999999999997
    97   1                       0      12.245999999999999      12.245999999999999
    98   1                       0      14.286999999999999      14.286999999999999
    99   1      2.0409999999999999      12.245999999999999      14.286999999999999
   100   1      2.0409999999999999      14.286999999999999      12.245999999999999
   101   1                       0      12.245999999999999      16.327999999999999
   102   1                       0      14.286999999999999                  18.369
   103   1      2.0409999999999999      12.245999999999999                  18.369
   104   1      2.0409999999999999      14.286999999999999      16.327999999999999
   105   1                       0      12.245999999999999                   20.41
   106   1                       0      14.286999999999999      22.451000000000001
   107   1      2.0409999999999999      12.245999999999999      22.451000000000001
   108   1      2.0409999999999999      14.286999999999999                   20.41
   109   1                       0      12.245999999999999      24.491999999999997
   110   1                       0      14.286999999999999      26.532999999999998
   111   1      2.0409999999999999      12.245999999999999      26.532999999999998
   112   1      2.0409999999999999      14.286999999999999      24.491999999999997
   113   1                       0      16.327999999999999                       0
   114   1                       0                  18.369      2.0409999999999999
   115   1      2.0409999999999999      16.327999999999999      2.0409999999999999
   116   1      2.0409999999999999                  18.369                       0
   117   1                       0      16.327999999999999      4.0819999999999999
   118   1                       0                  18.369      6.1229999999999993
   119   1      2.0409999999999999      16.327999999999999      6.1229999999999993
   120   1      2.0409999999999999                  18.369      4.0819999999999999
   121   1                       0      16.327999999999999      8.1639999999999997
   122   1                       0                  18.369                  10.205
   123   1      2.0409999999999999      16.327999999999999                  10.205
   124   1      2.0409999999999999                  18.369      8.1639999999999997
   125   1                       0      16.327999999999999      12.245999999999999
   126   1                       0                  18.369      14.286999999999999
   127   1      2.0409999999999999      16.327999999999999      14.286999999999999
   128   1      2.0409999999999999                  18.369      12.245999999999999
   129   1                       0      16.327999999999999      16.327999999999999
   130   1                       0                  18.369                  18.369
   131   1      2.0409999999999999      16.327999999999999                  18.369
   132   1      2.0409999999999999                  18.369      16.327999999999999
   133   1                       0      16.327999999999999                   20.41
   134   1                       0                  18.369      22.451000000000001
   135   1      2.0409999999999999      16.327999999999999      22.451000000000001
   136   1      2.0409999999999999                  18.369                   20.41
   137   1                       0      16.327999999999999      24.491999999999997
   138   1                       0                  18.369      26.532999999999998
   139   1      2.0409999999999999      16.327999999999999      26.532999999999998
   140   1      2.0409999999999999                  18.369      24.491999999999997
   141   1                       0                   20.41                       0
   142   1                       0      22.451000000000001      2.0409999999999999
   143   1      2.0409999999999999                   20.41      2.0409999999999999
   144   1      2.0409999999999999      22.451000000000001                       0
   145   1                       0                   20.41      4.0819999999999999
   146   1                       0      22.451000000000001      6.1229999999999993
   147   1      2.0409999999999999                   20.41      6.1229999999999993
   148   1      2.0409999999999999      22.451000000000001      4.0819999999999999
   149   1                       0                   20.41      8.1639999999999997
   150   1                       0      22.451000000000001                  10.205
   151   1      2.0409999999999999                   20.41                  10.205
   152   1      2.0409999999999999      22.451000000000001      8.1639999999999997
   153   1                       0                   20.41      12.245999999999999
   154   1                       0      22.451000000000001      14.286999999999999
   155   1      2.0409999999999999                   20.41      14.286999999999999
   156   1      2.0409999999999999      22.451000000000001      12.245999999999999
   157   1                       0                   20.41      16.327999999999999
   158   1                       0      22.451000000000001                  18.369
   159   1      2.0409999999999999                   20.41                  18.369
   160   1      2.0409999999999999      22.451000000000001      16.327999999999999
   161   1                       0                   20.41                   20.41
   162   1                       0      22.451000000000001      22.451000000000001
   163   1      2.0409999999999999                   20.41      22.451000000000001
   164   1      2.0409999999999999      22.451000000000001                   20.41
   165   1                       0                   20.41      24.491999999999997
   166   1                       0      22.451000000000001      26.532999999999998
   167   1      2.0409999999999999                   20.41      26.532999999999998
   168   1      2.0409999999999999      22.451000000000001      24.491999999999997
   169   1                       0      24.491999999999997                       0
   170   1                       0      26.532999999999998      2.0409999999999999
   171   1      2.0409999999999999      24.491999999999997      2.0409999999999999
   172   1      2.0409999999999999      26.532999999999998                       0
   173   1                       0      24.491999999999997      4.0819999999999999
   174   1                       0      26.532999999999998      6.1229999999999993
   175   1      2.0409999999999999      24.491999999999997      6.1229999999999993
   176   1      2.0409999999999999      26.532999999999998      4.0819999999999999
   177   1                       0      24.491999999999997      8.1639999999999997
   178   1                       0      26.532999999999998                  10.205
   179   1      2.0409999999999999      24.491999999999997                  10.205
   180   1      2.0409999999999999      26.532999999999998      8.1639999999999997
   181   1                       0      24.491999999999997      12.245999999999999
   182   1                       0      26.532999999999998      14.286999999999999
   183   1      2.0409999999999999      24.491999999999997      14.286999999999999
   184   1      2.0409999999999999      26.532999999999998      12.245999999999999
   185   1                       0      24.491999999999997      16.327999999999999
   186   1                       0      26.532999999999998                  18.369
   187   1      2.0409999999999999      24.491999999999997                  18.369
   188   1      2.0409999999999999      26.532999999999998      16.327999999999999
   189   1                       0      24.491999999999997                   20.41
   190   1                       0      26.532999999999998      22.451000000000001
   191   1      2.0409999999999999      24.491999999999997      22.451000000000001
   192   1      2.0409999999999999      26.532999999999998                   20.41
   193   1                       0      24.491999999999997      24.491999999999997
   194   1                       0      26.532999999999998      26.532999999999998
   195   1      2.0409999999999999      24.491999999999997      26.532999999999998
   196   1      2.0409999999999999      26.532999999999998      24.491999999999997
   197   1      4.0819999999999999                       0                       0
   198   1      4.0819999999999999      2.0409999999999999      2.0409999999999999
   199   1      6.1229999999999993                       0      2.0409999999999999
   200   1      6.1229999999999993      2.0409999999999999                       0
   201   1      4.0819999999999999                       0      4.0819999999999999
   202   1      4.0819999999999999      2.0409999999999999      6.1229999999999993
   203   1      6.1229999999999993                       0      6.1229999999999993
   204   1      6.1229999999999993      2.0409999999999999      4.0819999999999999
   205   1      4.0819999999999999                       0      8.1639999999999997
   206   1      4.0819999999999999      2.0409999999999999                  10.205
   207   1      6.1229999999999993                       0                  10.205
   208   1      6.1229999999999993      2.0409999999999999      8.1639999999999997
   209   1      4.0819999999999999                       0      12.245999999999999
   210   1      4.0819999999999999      2.0409999999999999      14.286999999999999
   211   1      6.1229999999999993                       0      14.286999999999999
   212   1      6.1229999999999993      2.0409999999999999      12.245999999999999
   213   1      4.0819999999999999                       0      16.327999999999999
   214   1      4.0819999999999999      2.0409999999999999                  18.369
   215   1      6.1229999999999993                       0                  18.369
   216   1      6.1229999999999993      2.0409999999999999      16.327999999999999
   217   1      4.0819999999999999                       0                   20.41
   218   1      4.0819999999999999      2.0409999999999999      22.451000000000001
   219   1      6.1229999999999993                       0      22.451000000000001
   220   1      6.1229999999999993      2.0409999999999999                   20.41
   221   1      4.0819999999999999                       0      24.491999999999997
   222   1      4.0819999999999999      2.0409999999999999      26.532999999999998
   223   1      6.1229999999999993                       0      26.532999999999998
   224   1      6.1229999999999993      2.0409999999999999      24.491999999999997
   225   1      4.0819999999999999      4.0819999999999999                       0
   226   1      4.0819999999999999      6.1229999999999993      2.0409999999999999
   227   1      6.1229999999999993      4.0819999999999999      2.0409999999999999
   228   1      6.1229999999999993      6.1229999999999993                       0
   229   1      4.0819999999999999      4.0819999999999999      4.0819999999999999
   230   1      4.0819999999999999      6.1229999999999993      6.1229999999999993
   231   1      6.1229999999999993      4.0819999999999999      6.1229999999999993
   232   1      6.1229999999999993      6.1229999999999993      4.0819999999999999
   233   1      4.0819999999999999      4.0819999999999999      8.1639999999999997
   234   1      4.0819999999999999      6.1229999999999993                  10.205
   235   1      6.1229999999999993      4.0819999999999999                  10.205
   236   1      6.1229999999999993      6.1229999999999993      8.1639999999999997
   237   1      4.0819999999999999      4.0819999999999999      12.245999999999999
   238   1      4.0819999999999999      6.1229999999999993      14.286999999999999
   239   1      6.1229999999999993      4.0819999999999999      14.286999999999999
   240   1      6.1229999999999993      6.1229999999999993      12.245999999999999
   241   1      4.0819999999999999      4.0819999999999999      16.327999999999999
   242   1      4.0819999999999999      6.1229999999999993                  18.369
   243   1      6.1229999999999993      4.0819999999999999                  18.369
   244   1      6.1229999999999993      6.1229999999999993      16.327999999999999
   245   1      4.0819999999999999      4.0819999999999999                   20.41
   246   1      4.0819999999999999      6.1229999999999993      22.451000000000001
   247   1      6.1229999999999993      4.0819999999999999      22.451000000000001
   248   1      6.1229999999999993      6.1229999999999993                   20.41
   249   1      4.0819999999999999      4.0819999999999999      24.491999999999997
   250   1      4.0819999999999999      6.1229999999999993      26.532999999999998
   251   1      6.1229999999999993      4.0819999999999999      26.532999999999998
   252   1      6.1229999999999993      6.1229999999999993      24.491999999999997
   253   1      4.0819999999999999      8.1639999999999997                       0
   254   1      4.0819999999999999                  10.205      2.0409999999999999
   255   1      6.1229999999999993      8.1639999999999997      2.0409999999999999
   256   1      6.1229999999999993                  10.205                       0
   257   1      4.0819999999999999      8.1639999999999997      4.0819999999999999
   258   1      4.0819999999999999                  10.205      6.1229999999999993
   259   1      6.1229999999999993      8.1639999999999997      6.1229999999999993
   260   1      6.1229999999999993                  10.205      4.0819999999999999
   261   1      4.0819999999999999      8.1639999999999997      8.1639999999999997
   262   1      4.0819999999999999                  10.205                  10.205
   263   1      6.1229999999999993      8.1639999999999997                  10.205
   264   1      6.1229999999999993                  10.205      8.1639999999999997
   265   1      4.0819999999999999      8.1639999999999997      12.245999999999999
   266   1      4.0819999999999999                  10.205      14.286999999999999
   267   1      6.1229999999999993      8.1639999999999997      14.286999999999999
   268   1      6.1229999999999993                  10.205      12.245999999999999
   269   1      4.0819999999999999      8.1639999999999997      16.327999999999999
   270   1      4.0819999999999999                  10.205                  18.369
   271   1      6.1229999999999993      8.1639999999999997                  18.369
   272   1      6.1229999999999993                  10.205      16.327999999999999
   273   1      4.0819999999999999      8.1639999999999997                   20.41
   274   1      4.0819999999999999                  10.205      22.451000000000001
   275   1      6.1229999999999993      8.1639999999999997      22.451000000000001
   276   1      6.1229999999999993                  10.205                   20.41
   277   1      4.0819999999999999      8.1639999999999997      24.491999999999997
   278   1      4.0819999999999999                  10.205      26.532999999999998
   279   1      6.1229999999999993      8.1639999999999997      26.532999999999998
   280   1      6.1229999999999993                  10.205      24.491999999999997
   281   1      4.0819999999999999      12.245999999999999                       0
   282   1      4.0819999999999999      14.286999999999999      2.0409999999999999
   283   1      6.1229999999999993      12.245999999999999      2.0409999999999999
   284   1      6.1229999999999993      14.286999999999999                       0
   285   1      4.0819999999999999      12.245999999999999      4.0819999999999999
   286   1      4.0819999999999999      14.286999999999999      6.1229999999999993
   287   1      6.1229999999999993      12.245999999999999      6.1229999999999993
   288   1      6.1229999999999993      14.286999999999999      4.0819999999999999
   289   1      4.0819999999999999      12.245999999999999      8.1639999999999997
   290   1      4.0819999999999999      14.286999999999999                  10.205
   291   1      6.1229999999999993      12.245999999999999                  10.205
   292   1      6.1229999999999993      14.286999999999999      8.1639999999999997
   293   1      4.0819999999999999      12.245999999999999      12.245999999999999
   294   1      4.0819999999999999      14.286999999999999      14.286999999999999
   295   1      6.1229999999999993      12.245999999999999      14.286999999999999
   296   1      6.1229999999999993      14.286999999999999      12.245999999999999
   297   1      4.0819999999999999      12.245999999999999      16.327999999999999
   298   1      4.0819999999999999      14.286999999999999                  18.369
   299   1      6.1229999999999993      12.245999999999999                  18.369
   300   1      6.1229999999999993      14.286999999999999      16.327999999999999
   301   1      4.0819999999999999      12.245999999999999                   20.41
   302   1      4.0819999999999999      14.286999999999999      22.451000000000001
   303   1      6.1229999999999993      12.245999999999999      22.451000000000001
   304   1      6.1229999999999993      14.286999999999999                   20.41
   305   1      4.0819999999999999      12.245999999999999      24.491999999999997
   306   1      4.0819999999999999      14.286999999999999      26.532999999999998
   307   1      6.1229999999999993      12.245999999999999      26.532999999999998
   308   1      6.1229999999999993      14.286999999999999      24.491999999999997
   309   1      4.0819999999999999      16.327999999999999                       0
   310   1      4.0819999999999999                  18.369      2.0409999999999999
   311   1      6.1229999999999993      16.327999999999999      2.0409999999999999
   312   1      6.1229999999999993                  18.369                       0
   313   1      4.0819999999999999      16.327999999999999      4.0819999999999999
   314   1      4.0819999999999999                  18.369      6.1229999999999993
   315   1      6.1229999999999993      16.327999999999999      6.1229999999999993
   316   1      6.1229999999999993                  18.369      4.0819999999999999
   317   1      4.0819999999999999      16.327999999999999      8.1639999999999997
   318   1      4.0819999999999999                  18.369                  10.205
   319   1      6.1229999999999993      16.327999999999999                  10.205
   320   1      6.1229999999999993                  18.369      8.1639999999999997
   321   1      4.0819999999999999      16.327999999999999      12.245999999999999
   322   1      4.0819999999999999                  18.369      14.286999999999999
   323   1      6.1229999999999993      16.327999999999999      14.286999999999999
   324   1      6.1229999999999993                  18.369      12.245999999999999
   325   1      4.0819999999999999      16.327999999999999      16.327999999999999
   326   1      4.0819999999999999                  18.369                  18.369
   327   1      6.1229999999999993      16.327999999999999                  18.369
   328   1      6.1229999999999993                  18.369      16.327999999999999
   329   1      4.0819999999999999      16.327999999999999                   20.41
   330   1      4.0819999999999999                  18.369      22.451000000000001
   331   1      6.1229999999999993      16.327999999999999      22.451000000000001
   332   1      6.1229999999999993                  18.369                   20.41
   333   1      4.0819999999999999      16.327999999999999      24.491999999999997
   334   1      4.0819999999999999                  18.369      26.532999999999998
   335   1      6.1229999999999993      16.327999999999999      26.532999999999998
   336   1      6.1229999999999993                  18.369      24.491999999999997
   337   1      4.0819999999999999                   20.41                       0
   338   1      4.0819999999999999      22.451000000000001      2.0409999999999999
   339   1      6.1229999999999993                   20.41      2.0409999999999999
   340   1      6.1229999999999993      22.451000000000001                       0
   341   1      4.0819999999999999                   20.41      4.0819999999999999
   342   1      4.0819999999999999      22.451000000000001      6.1229999999999993
   343   1      6.1229999999999993                   20.41      6.1229999999999993
   344   1      6.1229999999999993      22.451000000000001      4.0819999999999999
   345   1      4.0819999999999999                   20.41      8.1639999999999997
   346   1      4.0819999999999999      22.451000000000001                  10.205
   347   1      6.1229999999999993                   20.41                  10.205
   348   1      6.1229999999999993      22.451000000000001      8.1639999999999997
   349   1      4.0819999999999999                   20.41      12.245999999999999
   350   1      4.0819999999999999      22.451000000000001      14.286999999999999
   351   1      6.1229999999999993                   20.41      14.286999999999999
   352   1      6.1229999999999993      22.451000000000001      12.245999999999999
   353   1      4.0819999999999999                   20.41      16.327999999999999
   354   1      4.0819999999999999      22.451000000000001                  18.369
   355   1      6.1229999999999993                   20.41                  18.369
   356   1      6.1229999999999993      22.451000000000001      16.327999999999999
   357   1      4.0819999999999999                   20.41                   20.41
   358   1      4.0819999999999999      22.451000000000001      22.451000000000001