(written by ASE)

10975 atoms
1 atom types

0.0      57.147999999999996  xlo xhi
0.0      57.147999999999996  ylo yhi
0.0      57.147999999999996  zlo zhi

Masses

     1      107.86819997225152 # Ag

Atoms # atomic

     1   1                       0                       0                       0
     2   1                       0      2.0409999999999999      2.0409999999999999
     3   1      2.0409999999999999                       0      2.0409999999999999
     4   1      2.0409999999999999      2.0409999999999999                       0
     5   1                       0                       0      4.0819999999999999
     6   1                       0      2.0409999999999999      6.1229999999999993
     7   1      2.0409999999999999                       0      6.1229999999999993
     8   1      2.0409999999999999      2.0409999999999999      4.0819999999999999
     9   1                       0                       0      8.1639999999999997
    10   1                       0      2.0409999999999999                  10.205
    11   1      2.0409999999999999                       0                  10.205
    12   1      2.0409999999999999      2.0409999999999999      8.1639999999999997
    13   1                       0                       0      12.245999999999999
    14   1                       0      2.0409999999999999      14.286999999999999
    15   1      2.0409999999999999                       0      14.286999999999999
    16   1      2.0409999999999999      2.0409999999999999      12.245999999999999
    17   1                       0                       0      16.327999999999999
    18   1                       0      2.0409999999999999                  18.369
    19   1      2.0409999999999999                       0                  18.369
    20   1      2.0409999999999999      2.0409999999999999      16.327999999999999
    21   1                       0                       0                   20.41
    22   1                       0      2.0409999999999999      22.451000000000001
    23   1      2.0409999999999999                       0      22.451000000000001
    24   1      2.0409999999999999      2.0409999999999999                   20.41
    25   1                       0                       0      24.491999999999997
    26   1                       0      2.0409999999999999      26.532999999999998
    27   1      2.0409999999999999                       0      26.532999999999998
    28   1      2.0409999999999999      2.0409999999999999      24.491999999999997
    29   1                       0                       0      28.573999999999998
    30   1                       0      2.0409999999999999      30.614999999999998
    31   1      2.0409999999999999                       0      30.614999999999998
    32   1      2.0409999999999999      2.0409999999999999      28.573999999999998
    33   1                       0                       0      32.655999999999999
    34   1                       0      2.0409999999999999      34.696999999999996
    35   1      2.0409999999999999                       0      34.696999999999996
    36   1      2.0409999999999999      2.0409999999999999      32.655999999999999
    37   1                       0                       0                  36.738
    38   1                       0      2.0409999999999999      38.778999999999996
    39   1      2.0409999999999999                       0      38.778999999999996
    40   1      2.0409999999999999      2.0409999999999999                  36.738
    41   1                       0                       0                   40.82
    42   1                       0      2.0409999999999999      42.860999999999997
    43   1      2.0409999999999999                       0      42.860999999999997
    44   1      2.0409999999999999      2.0409999999999999                   40.82
    45   1                       0                       0      44.902000000000001
    46   1                       0      2.0409999999999999      46.942999999999998
    47   1      2.0409999999999999                       0      46.942999999999998
    48   1      2.0409999999999999      2.0409999999999999      44.902000000000001
    49   1                       0                       0      48.983999999999995
    50   1                       0      2.0409999999999999      51.024999999999991
    51   1      2.0409999999999999                       0      51.024999999999991
    52   1      2.0409999999999999      2.0409999999999999      48.983999999999995
    53   1                       0                       0      53.065999999999995
    54   1                       0      2.0409999999999999      55.106999999999992
    55   1      2.0409999999999999                       0      55.106999999999992
    56   1      2.0409999999999999      2.0409999999999999      53.065999999999995
    57   1                       0      4.0819999999999999                       0
    58   1                       0      6.1229999999999993      2.0409999999999999
    59   1      2.0409999999999999      4.0819999999999999      2.0409999999999999
    60   1      2.0409999999999999      6.1229999999999993                       0
    61   1                       0      4.0819999999999999      4.0819999999999999
    62   1                       0      6.1229999999999993      6.1229999999999993
    63   1      2.0409999999999999      4.0819999999999999      6.1229999999999993
    64   1      2.0409999999999999      6.1229999999999993      4.0819999999999999
    65   1                       0      4.0819999999999999      8.1639999999999997
    66   1                       0      6.1229999999999993                  10.205
    67   1      2.0409999999999999      4.0819999999999999                  10.205
    68   1      2.0409999999999999      6.1229999999999993      8.1639999999999997
    69   1                       0      4.0819999999999999      12.245999999999999
    70   1                       0      6.1229999999999993      14.286999999999999
    71   1      2.0409999999999999      4.0819999999999999      14.286999999999999
    72   1      2.0409999999999999      6.1229999999999993      12.245999999999999
    73   1                       0      4.0819999999999999      16.327999999999999
    74   1                       0      6.1229999999999993                  18.369
    75   1      2.0409999999999999      4.0819999999999999                  18.369
    76   1      2.0409999999999999      6.1229999999999993      16.327999999999999
    77   1                       0      4.0819999999999999                   20.41
    78   1                       0      6.1229999999999993      22.451000000000001
    79   1      2.0409999999999999      4.0819999999999999      22.451000000000001
    80   1      2.0409999999999999      6.1229999999999993                   20.41
    81   1                       0      4.0819999999999999      24.491999999999997
    82   1                       0      6.1229999999999993      26.532999999999998
    83   1      2.0409999999999999      4.0819999999999999      26.532999999999998
    84   1      2.0409999999999999      6.1229999999999993      24.491999999999997
    85   1                       0      4.0819999999999999      28.573999999999998
    86   1                       0      6.1229999999999993      30.614999999999998
    87   1      2.0409999999999999      4.0819999999999999      30.614999999999998
    88   1      2.0409999999999999      6.1229999999999993      28.573999999999998
    89   1                       0      4.0819999999999999      32.655999999999999
    90   1                       0      6.1229999999999993      34.696999999999996
    91   1      2.0409999999999999      4.0819999999999999      34.696999999999996
    92   1      2.0409999999999999      6.1229999999999993      32.655999999999999
    93   1                       0      4.0819999999999999                  36.738
    94   1                       0      6.1229999999999993      38.778999999999996
    95   1      2.0409999999999999      4.0819999999999999      38.778999999999996
    96   1      2.0409999999999999      6.1229999999999993                  36.738
    97   1                       0      4.0819999999999999                   40.82
    98   1                       0      6.1229999999999993      42.860999999999997
    99   1      2.0409999999999999      4.0819999999999999      42.860999999999997
   100   1      2.0409999999999999      6.1229999999999993                   40.82
   101   1                       0      4.0819999999999999      44.902000000000001
   102   1                       0      6.1229999999999993      46.942999999999998
   103   1      2.0409999999999999      4.0819999999999999      46.942999999999998
   104   1      2.0409999999999999      6.1229999999999993      44.902000000000001
   105   1                       0      4.0819999999999999      48.983999999999995
   106   1                       0      6.1229999999999993      51.024999999999991
   107   1      2.0409999999999999      4.0819999999999999      51.024999999999991
   108   1      2.0409999999999999      6.1229999999999993      48.983999999999995
   109   1                       0      4.0819999999999999      53.065999999999995
   110   1                       0      6.1229999999999993      55.106999999999992
   111   1      2.0409999999999999      4.0819999999999999      55.106999999999992
   112   1      2.0409999999999999      6.1229999999999993      53.065999999999995
   113   1                       0      8.1639999999999997                       0
   114   1                       0                  10.205      2.0409999999999999
   115   1      2.0409999999999999      8.1639999999999997      2.0409999999999999
   116   1      2.0409999999999999                  10.205                       0
   117   1                       0      8.1639999999999997      4.0819999999999999
   118   1                       0                  10.205      6.1229999999999993
   119   1      2.0409999999999999      8.1639999999999997      6.1229999999999993
   120   1      2.0409999999999999                  10.205      4.0819999999999999
   121   1                       0      8.1639999999999997      8.1639999999999997
   122   1                       0                  10.205                  10.205
   123   1      2.0409999999999999      8.1639999999999997                  10.205
   124   1      2.0409999999999999                  10.205      8.1639999999999997
   125   1                       0      8.1639999999999997      12.245999999999999
   126   1                       0                  10.205      14.286999999999999
   127   1      2.0409999999999999      8.1639999999999997      14.286999999999999
   128   1      2.0409999999999999                  10.205      12.245999999999999
   129   1                       0      8.1639999999999997      16.327999999999999
   130   1                       0                  10.205                  18.369
   131   1      2.0409999999999999      8.1639999999999997                  18.369
   132   1      2.0409999999999999                  10.205      16.327999999999999
   133   1                       0      8.1639999999999997                   20.41
   134   1                       0                  10.205      22.451000000000001
   135   1      2.0409999999999999      8.1639999999999997      22.451000000000001
   136   1      2.0409999999999999                  10.205                   20.41
   137   1                       0      8.1639999999999997      24.491999999999997
   138   1                       0                  10.205      26.532999999999998
   139   1      2.0409999999999999      8.1639999999999997      26.532999999999998
   140   1      2.0409999999999999                  10.205      24.491999999999997
   141   1                       0      8.1639999999999997      28.573999999999998
   142   1                       0                  10.205      30.614999999999998
   143   1      2.0409999999999999      8.1639999999999997      30.614999999999998
   144   1      2.0409999999999999                  10.205      28.573999999999998
   145   1                       0      8.1639999999999997      32.655999999999999
   146   1                       0                  10.205      34.696999999999996
   147   1      2.0409999999999999      8.1639999999999997      34.696999999999996
   148   1      2.0409999999999999                  10.205      32.655999999999999
   149   1                       0      8.1639999999999997                  36.738
   150   1                       0                  10.205      38.778999999999996
   151   1      2.0409999999999999      8.1639999999999997      38.778999999999996
   152   1      2.0409999999999999                  10.205                  36.738
   153   1                       0      8.1639999999999997                   40.82
   154   1                       0                  10.205      42.860999999999997
   155   1      2.0409999999999999      8.1639999999999997      42.860999999999997
   156   1      2.0409999999999999                  10.205                   40.82
   157   1                       0      8.1639999999999997      44.902000000000001
   158   1                       0                  10.205      46.942999999999998
   159   1      2.0409999999999999      8.1639999999999997      46.942999999999998
   160   1      2.0409999999999999                  10.205      44.902000000000001
   161   1                       0      8.1639999999999997      48.983999999999995
   162   1                       0                  10.205      51.024999999999991
   163   1      2.0409999999999999      8.1639999999999997      51.024999999999991
   164   1      2.0409999999999999                  10.205      48.983999999999995
   165   1                       0      8.1639999999999997      53.065999999999995
   166   1                       0                  10.205      55.106999999999992
   167   1      2.0409999999999999      8.1639999999999997      55.106999999999992
   168   1      2.0409999999999999                  10.205      53.065999999999995
   169   1                       0      12.245999999999999                       0
   170   1                       0      14.286999999999999      2.0409999999999999
   171   1      2.0409999999999999      12.245999999999999      2.0409999999999999
   172   1      2.0409999999999999      14.286999999999999                       0
   173   1                       0      12.245999999999999      4.0819999999999999
   174   1                       0      14.286999999999999      6.1229999999999993
   175   1      2.0409999999999999      12.245999999999999      6.1229999999999993
   176   1      2.0409999999999999      14.286999999999999      4.0819999999999999
   177   1                       0      12.245999999999999      8.1639999999999997
   178   1                       0      14.286999999999999                  10.205
   179   1      2.0409999999999999      12.245999999999999                  10.205
   180   1      2.0409999999999999      14.286999999999999      8.1639999999999997
   181   1                       0      12.245999999999999      12.245999999999999
   182   1                       0      14.286999999999999      14.286999999999999
   183   1      2.0409999999999999      12.245999999999999      14.286999999999999
   184   1      2.0409999999999999      14.286999999999999      12.245999999999999
   185   1                       0      12.245999999999999      16.327999999999999
   186   1                       0      14.286999999999999                  18.369
   187   1      2.0409999999999999      12.245999999999999                  18.369
   188   1      2.0409999999999999      14.286999999999999      16.327999999999999
   189   1                       0      12.245999999999999                   20.41
   190   1                       0      14.286999999999999      22.451000000000001
   191   1      2.0409999999999999      12.245999999999999      22.451000000000001
   192   1      2.0409999999999999      14.286999999999999                   20.41
   193   1                       0      12.245999999999999      24.491999999999997
   194   1                       0      14.286999999999999      26.532999999999998
   195   1      2.0409999999999999      12.245999999999999      26.532999999999998
   196   1      2.0409999999999999      14.286999999999999      24.491999999999997
   197   1                       0      12.245999999999999      28.573999999999998
   198   1                       0      14.286999999999999      30.614999999999998
   199   1      2.0409999999999999      12.245999999999999      30.614999999999998
   200   1      2.0409999999999999      14.286999999999999      28.573999999999998
   201   1                       0      12.245999999999999      32.655999999999999
   202   1                       0      14.286999999999999      34.696999999999996
   203   1      2.0409999999999999      12.245999999999999      34.696999999999996
   204   1      2.0409999999999999      14.286999999999999      32.655999999999999
   205   1                       0      12.245999999999999                  36.738
   206   1                       0      14.286999999999999      38.778999999999996
   207   1      2.0409999999999999      12.245999999999999      38.778999999999996
   208   1      2.0409999999999999      14.286999999999999                  36.738
   209   1                       0      12.245999999999999                   40.82
   210   1                       0      14.286999999999999      42.860999999999997
   211   1      2.0409999999999999      12.245999999999999      42.860999999999997
   212   1      2.0409999999999999      14.286999999999999                   40.82
   213   1                       0      12.245999999999999      44.902000000000001
   214   1                       0      14.286999999999999      46.942999999999998
   215   1      2.0409999999999999      12.245999999999999      46.942999999999998
   216   1      2.0409999999999999      14.286999999999999      44.902000000000001
   217   1                       0      12.245999999999999      48.983999999999995
   218   1                       0      14.286999999999999      51.024999999999991
   219   1      2.0409999999999999      12.245999999999999      51.024999999999991
   220   1      2.0409999999999999      14.286999999999999      48.983999999999995
   221   1                       0      12.245999999999999      53.065999999999995
   222   1                       0      14.286999999999999      55.106999999999992
   223   1      2.0409999999999999      12.245999999999999      55.106999999999992
   224   1      2.0409999999999999      14.286999999999999      53.065999999999995
   225   1                       0      16.327999999999999                       0
   226   1                       0                  18.369      2.0409999999999999
   227   1      2.0409999999999999      16.327999999999999      2.0409999999999999
   228   1      2.0409999999999999                  18.369                       0
   229   1                       0      16.327999999999999      4.0819999999999999
   230   1                       0                  18.369      6.1229999999999993
   231   1      2.0409999999999999      16.327999999999999      6.1229999999999993
   232   1      2.0409999999999999                  18.369      4.0819999999999999
   233   1                       0      16.327999999999999      8.1639999999999997
   234   1                       0                  18.369                  10.205
   235   1      2.0409999999999999      16.327999999999999                  10.205
   236   1      2.0409999999999999                  18.369      8.1639999999999997
   237   1                       0      16.327999999999999      12.245999999999999
   238   1                       0                  18.369      14.286999999999999
   239   1      2.0409999999999999      16.327999999999999      14.286999999999999
   240   1      2.0409999999999999                  18.369      12.245999999999999
   241   1                       0      16.327999999999999      16.327999999999999
   242   1                       0                  18.369                  18.369
   243   1      2.0409999999999999      16.327999999999999                  18.369
   244   1      2.0409999999999999                  18.369      16.327999999999999
   245   1                       0      16.327999999999999                   20.41
   246   1                       0                  18.369      22.451000000000001
   247   1      2.0409999999999999      16.327999999999999      22.451000000000001
   248   1      2.0409999999999999                  18.369                   20.41
   249   1                       0      16.327999999999999      24.491999999999997
   250   1                       0                  18.369      26.532999999999998
   251   1      2.0409999999999999      16.327999999999999      26.532999999999998
   252   1      2.0409999999999999                  18.369      24.491999999999997
   253   1                       0      16.327999999999999      28.573999999999998
   254   1                       0                  18.369      30.614999999999998
   255   1      2.0409999999999999      16.327999999999999      30.614999999999998
   256   1      2.0409999999999999                  18.369      28.573999999999998
   257   1                       0      16.327999999999999      32.655999999999999
   258   1                       0                  18.369      34.696999999999996
   259   1      2.0409999999999999      16.327999999999999      34.696999999999996
   260   1      2.0409999999999999                  18.369      32.655999999999999
   261   1                       0      16.327999999999999                  36.738
   262   1                       0                  18.369      38.778999999999996
   263   1      2.0409999999999999      16.327999999999999      38.778999999999996
   264   1      2.0409999999999999                  18.369                  36.738
   265   1                       0      16.327999999999999                   40.82
   266   1                       0                  18.369      42.860999999999997
   267   1      2.0409999999999999      16.327999999999999      42.860999999999997
   268   1      2.0409999999999999                  18.369                   40.82
   269   1                       0      16.327999999999999      44.902000000000001
   270   1                       0                  18.369      46.942999999999998
   271   1      2.0409999999999999      16.327999999999999      46.942999999999998
   272   1      2.0409999999999999                  18.369      44.902000000000001
   273   1                       0      16.327999999999999      48.983999999999995
   274   1                       0                  18.369      51.024999999999991
   275   1      2.0409999999999999      16.327999999999999      51.024999999999991
   276   1      2.0409999999999999                  18.369      48.983999999999995
   277   1                       0      16.327999999999999      53.065999999999995
   278   1                       0                  18.369      55.106999999999992
   279   1      2.0409999999999999      16.327999999999999      55.106999999999992
   280   1      2.0409999999999999                  18.369      53.065999999999995
   281   1                       0                   20.41                       0
   282   1                       0      22.451000000000001      2.0409999999999999
   283   1      2.0409999999999999                   20.41      2.0409999999999999
   284   1      2.0409999999999999      22.451000000000001                       0
   285   1                       0                   20.41      4.0819999999999999
   286   1                       0      22.451000000000001      6.1229999999999993
   287   1      2.0409999999999999                   20.41      6.1229999999999993
   288   1      2.0409999999999999      22.451000000000001      4.0819999999999999
   289   1                       0                   20.41      8.1639999999999997
   290   1                       0      22.451000000000001                  10.205
   291   1      2.0409999999999999                   20.41                  10.205
   292   1      2.0409999999999999      22.451000000000001      8.1639999999999997
   293   1                       0                   20.41      12.245999999999999
   294   1                       0      22.451000000000001      14.286999999999999
   295   1      2.0409999999999999                   20.41      14.286999999999999
   296   1      2.0409999999999999      22.451000000000001      12.245999999999999
   297   1                       0                   20.41      16.327999999999999
   298   1                       0      22.451000000000001                  18.369
   299   1      2.0409999999999999                   20.41                  18.369
   300   1      2.0409999999999999      22.451000000000001      16.327999999999999
   301   1                       0                   20.41                   20.41
   302   1                       0      22.451000000000001      22.451000000000001
   303   1      2.0409999999999999                   20.41      22.451000000000001
   304   1      2.0409999999999999      22.451000000000001                   20.41
   305   1                       0                   20.41      24.491999999999997
   306   1                       0      22.451000000000001      26.532999999999998
   307   1      2.0409999999999999                   20.41      26.532999999999998
   308   1      2.0409999999999999      22.451000000000001      24.491999999999997
   309   1                       0                   20.41      28.573999999999998
   310   1                       0      22.451000000000001      30.614999999999998
   311   1      2.0409999999999999                   20.41      30.614999999999998
   312   1      2.0409999999999999      22.451000000000001      28.573999999999998
   313   1                       0                   20.41      32.655999999999999
   314   1                       0      22.451000000000001      34.696999999999996
   315   1      2.0409999999999999                   20.41      34.696999999999996
   316   1      2.0409999999999999      22.451000000000001      32.655999999999999
   317   1                       0                   20.41                  36.738
   318   1                       0      22.451000000000001      38.778999999999996
   319   1      2.0409999999999999                   20.41      38.778999999999996
   320   1      2.0409999999999999      22.451000000000001                  36.738
   321   1                       0                   20.41                   40.82
   322   1                       0      22.451000000000001      42.860999999999997
   323   1      2.0409999999999999                   20.41      42.860999999999997
   324   1      2.0409999999999999      22.451000000000001                   40.82
   325   1                       0                   20.41      44.902000000000001
   326   1                       0      22.451000000000001      46.942999999999998
   327   1      2.0409999999999999                   20.41      46.942999999999998
   328   1      2.0409999999999999      22.451000000000001      44.902000000000001
   329   1                       0                   20.41      48.983999999999995
   330   1                       0      22.451000000000001      51.024999999999991
   331   1      2.0409999999999999                   20.41      51.024999999999991
   332   1      2.0409999999999999      22.451000000000001      48.983999999999995
   333   1                       0                   20.41      53.065999999999995
   334   1                       0      22.451000000000001      55.106999999999992
   335   1      2.0409999999999999                   20.41      55.106999999999992
   336   1      2.0409999999999999      22.451000000000001      53.065999999999995
   337   1                       0      24.491999999999997                       0
   338   1                       0      26.532999999999998      2.0409999999999999
   339   1      2.0409999999999999      24.491999999999997      2.0409999999999999
   340   1      2.0409999999999999      26.532999999999998                       0
   341   1                       0      24.491999999999997      4.0819999999999999
   342   1                       0      26.532999999999998      6.1229999999999993
   343   1      2.0409999999999999      24.491999999999997      6.1229999999999993
   344   1      2.0409999999999999      26.532999999999998      4.0819999999999999
   345   1                       0      24.491999999999997      8.1639999999999997
   346   1                       0      26.532999999999998                  10.205
   347   1      2.0409999999999999      24.491999999999997                  10.205
   348   1      2.0409999999999999      26.532999999999998      8.1639999999999997
   349   1                       0      24.491999999999997      12.245999999999999
   350   1                       0      26.532999999999998      14.286999999999999
   351   1      2.0409999999999999      24.491999999999997      14.286999999999999
   352   1      2.0409999999999999      26.532999999999998      12.245999999999999
   353   1                       0      24.491999999999997      16.327999999999999
   354   1                       0      26.532999999999998                  18.369
   355   1      2.0409999999999999      24.491999999999997                  18.369
   356   1      2.0409999999999999      26.532999999999998      16.327999999999999
   357   1                       0      24.491999999999997                   20.41
   358   1                       0      26.532999999999998      22.451000000000001