(written by ASE)

4 atoms
1 atom types

0.0      4.0819999999999999  xlo xhi
0.0      4.0819999999999999  ylo yhi
0.0      4.0819999999999999  zlo zhi

Masses

     1      107.86819997225152 # Ag

Atoms # atomic

     1   1                       0                       0                       0
     2   1                       0      2.0409999999999999      2.0409999999999999
     3   1      2.0409999999999999                       0      2.0409999999999999
     4   1      2.0409999999999999      2.0409999999999999                       0
