(written by ASE)

4000 atoms
1 atom types

0.0                   40.82  xlo xhi
0.0                   40.82  ylo yhi
0.0                   40.82  zlo zhi

Masses

     1      107.86819997225152 # Ag

Atoms # atomic

     1   1                       0                       0                       0
     2   1                       0      2.0409999999999999      2.0409999999999999
     3   1      2.0409999999999999                       0      2.0409999999999999
     4   1      2.0409999999999999      2.0409999999999999                       0
     5   1                       0                       0      4.0819999999999999
     6   1                       0      2.0409999999999999      6.1229999999999993
     7   1      2.0409999999999999                       0      6.1229999999999993
     8   1      2.0409999999999999      2.0409999999999999      4.0819999999999999
     9   1                       0                       0      8.1639999999999997
    10   1                       0      2.0409999999999999                  10.205
    11   1      2.0409999999999999                       0                  10.205
    12   1      2.0409999999999999      2.0409999999999999      8.1639999999999997
    13   1                       0                       0      12.245999999999999
    14   1                       0      2.0409999999999999      14.286999999999999
    15   1      2.0409999999999999                       0      14.286999999999999
    16   1      2.0409999999999999      2.0409999999999999      12.245999999999999
    17   1                       0                       0      16.327999999999999
    18   1                       0      2.0409999999999999                  18.369
    19   1      2.0409999999999999                       0                  18.369
    20   1      2.0409999999999999      2.0409999999999999      16.327999999999999
    21   1                       0                       0                   20.41
    22   1                       0      2.0409999999999999      22.451000000000001
    23   1      2.0409999999999999                       0      22.451000000000001
    24   1      2.0409999999999999      2.0409999999999999                   20.41
    25   1                       0                       0      24.491999999999997
    26   1                       0      2.0409999999999999      26.532999999999998
    27   1      2.0409999999999999                       0      26.532999999999998
    28   1      2.0409999999999999      2.0409999999999999      24.491999999999997
    29   1                       0                       0      28.573999999999998
    30   1                       0      2.0409999999999999      30.614999999999998
    31   1      2.0409999999999999                       0      30.614999999999998
    32   1      2.0409999999999999      2.0409999999999999      28.573999999999998
    33   1                       0                       0      32.655999999999999
    34   1                       0      2.0409999999999999      34.696999999999996
    35   1      2.0409999999999999                       0      34.696999999999996
    36   1      2.0409999999999999      2.0409999999999999      32.655999999999999
    37   1                       0                       0                  36.738
    38   1                       0      2.0409999999999999      38.778999999999996
    39   1      2.0409999999999999                       0      38.778999999999996
    40   1      2.0409999999999999      2.0409999999999999                  36.738
    41   1                       0      4.0819999999999999                       0
    42   1                       0      6.1229999999999993      2.0409999999999999
    43   1      2.0409999999999999      4.0819999999999999      2.0409999999999999
    44   1      2.0409999999999999      6.1229999999999993                       0
    45   1                       0      4.0819999999999999      4.0819999999999999
    46   1                       0      6.1229999999999993      6.1229999999999993
    47   1      2.0409999999999999      4.0819999999999999      6.1229999999999993
    48   1      2.0409999999999999      6.1229999999999993      4.0819999999999999
    49   1                       0      4.0819999999999999      8.1639999999999997
    50   1                       0      6.1229999999999993                  10.205
    51   1      2.0409999999999999      4.0819999999999999                  10.205
    52   1      2.0409999999999999      6.1229999999999993      8.1639999999999997
    53   1                       0      4.0819999999999999      12.245999999999999
    54   1                       0      6.1229999999999993      14.286999999999999
    55   1      2.0409999999999999      4.0819999999999999      14.286999999999999
    56   1      2.0409999999999999      6.1229999999999993      12.245999999999999
    57   1                       0      4.0819999999999999      16.327999999999999
    58   1                       0      6.1229999999999993                  18.369
    59   1      2.0409999999999999      4.0819999999999999                  18.369
    60   1      2.0409999999999999      6.1229999999999993      16.327999999999999
    61   1                       0      4.0819999999999999                   20.41
    62   1                       0      6.1229999999999993      22.451000000000001
    63   1      2.0409999999999999      4.0819999999999999      22.451000000000001
    64   1      2.0409999999999999      6.1229999999999993                   20.41
    65   1                       0      4.0819999999999999      24.491999999999997
    66   1                       0      6.1229999999999993      26.532999999999998
    67   1      2.0409999999999999      4.0819999999999999      26.532999999999998
    68   1      2.0409999999999999      6.1229999999999993      24.491999999999997
    69   1                       0      4.0819999999999999      28.573999999999998
    70   1                       0      6.1229999999999993      30.614999999999998
    71   1      2.0409999999999999      4.0819999999999999      30.614999999999998
    72   1      2.0409999999999999      6.1229999999999993      28.573999999999998
    73   1                       0      4.0819999999999999      32.655999999999999
    74   1                       0      6.1229999999999993      34.696999999999996
    75   1      2.0409999999999999      4.0819999999999999      34.696999999999996
    76   1      2.0409999999999999      6.1229999999999993      32.655999999999999
    77   1                       0      4.0819999999999999                  36.738
    78   1                       0      6.1229999999999993      38.778999999999996
    79   1      2.0409999999999999      4.0819999999999999      38.778999999999996
    80   1      2.0409999999999999      6.1229999999999993                  36.738
    81   1                       0      8.1639999999999997                       0
    82   1                       0                  10.205      2.0409999999999999
    83   1      2.0409999999999999      8.1639999999999997      2.0409999999999999
    84   1      2.0409999999999999                  10.205                       0
    85   1                       0      8.1639999999999997      4.0819999999999999
    86   1                       0                  10.205      6.1229999999999993
    87   1      2.0409999999999999      8.1639999999999997      6.1229999999999993
    88   1      2.0409999999999999                  10.205      4.0819999999999999
    89   1                       0      8.1639999999999997      8.1639999999999997
    90   1                       0                  10.205                  10.205
    91   1      2.0409999999999999      8.1639999999999997                  10.205
    92   1      2.0409999999999999                  10.205      8.1639999999999997
    93   1                       0      8.1639999999999997      12.245999999999999
    94   1                       0                  10.205      14.286999999999999
    95   1      2.0409999999999999      8.1639999999999997      14.286999999999999
    96   1      2.0409999999999999                  10.205      12.245999999999999
    97   1                       0      8.1639999999999997      16.327999999999999
    98   1                       0                  10.205                  18.369
    99   1      2.0409999999999999      8.1639999999999997                  18.369
   100   1      2.0409999999999999                  10.205      16.327999999999999
   101   1                       0      8.1639999999999997                   20.41
   102   1                       0                  10.205      22.451000000000001
   103   1      2.0409999999999999      8.1639999999999997      22.451000000000001
   104   1      2.0409999999999999                  10.205                   20.41
   105   1                       0      8.1639999999999997      24.491999999999997
   106   1                       0                  10.205      26.532999999999998
   107   1      2.0409999999999999      8.1639999999999997      26.532999999999998
   108   1      2.0409999999999999                  10.205      24.491999999999997
   109   1                       0      8.1639999999999997      28.573999999999998
   110   1                       0                  10.205      30.614999999999998
   111   1      2.0409999999999999      8.1639999999999997      30.614999999999998
   112   1      2.0409999999999999                  10.205      28.573999999999998
   113   1                       0      8.1639999999999997      32.655999999999999
   114   1                       0                  10.205      34.696999999999996
   115   1      2.0409999999999999      8.1639999999999997      34.696999999999996
   116   1      2.0409999999999999                  10.205      32.655999999999999
   117   1                       0      8.1639999999999997                  36.738
   118   1                       0                  10.205      38.778999999999996
   119   1      2.0409999999999999      8.1639999999999997      38.778999999999996
   120   1      2.0409999999999999                  10.205                  36.738
   121   1                       0      12.245999999999999                       0
   122   1                       0      14.286999999999999      2.0409999999999999
   123   1      2.0409999999999999      12.245999999999999      2.0409999999999999
   124   1      2.0409999999999999      14.286999999999999                       0
   125   1                       0      12.245999999999999      4.0819999999999999
   126   1                       0      14.286999999999999      6.1229999999999993
   127   1      2.0409999999999999      12.245999999999999      6.1229999999999993
   128   1      2.0409999999999999      14.286999999999999      4.0819999999999999
   129   1                       0      12.245999999999999      8.1639999999999997
   130   1                       0      14.286999999999999                  10.205
   131   1      2.0409999999999999      12.245999999999999                  10.205
   132   1      2.0409999999999999      14.286999999999999      8.1639999999999997
   133   1                       0      12.245999999999999      12.245999999999999
   134   1                       0      14.286999999999999      14.286999999999999
   135   1      2.0409999999999999      12.245999999999999      14.286999999999999
   136   1      2.0409999999999999      14.286999999999999      12.245999999999999
   137   1                       0      12.245999999999999      16.327999999999999
   138   1                       0      14.286999999999999                  18.369
   139   1      2.0409999999999999      12.245999999999999                  18.369
   140   1      2.0409999999999999      14.286999999999999      16.327999999999999
   141   1                       0      12.245999999999999                   20.41
   142   1                       0      14.286999999999999      22.451000000000001
   143   1      2.0409999999999999      12.245999999999999      22.451000000000001
   144   1      2.0409999999999999      14.286999999999999                   20.41
   145   1                       0      12.245999999999999      24.491999999999997
   146   1                       0      14.286999999999999      26.532999999999998
   147   1      2.0409999999999999      12.245999999999999      26.532999999999998
   148   1      2.0409999999999999      14.286999999999999      24.491999999999997
   149   1                       0      12.245999999999999      28.573999999999998
   150   1                       0      14.286999999999999      30.614999999999998
   151   1      2.0409999999999999      12.245999999999999      30.614999999999998
   152   1      2.0409999999999999      14.286999999999999      28.573999999999998
   153   1                       0      12.245999999999999      32.655999999999999
   154   1                       0      14.286999999999999      34.696999999999996
   155   1      2.0409999999999999      12.245999999999999      34.696999999999996
   156   1      2.0409999999999999      14.286999999999999      32.655999999999999
   157   1                       0      12.245999999999999                  36.738
   158   1                       0      14.286999999999999      38.778999999999996
   159   1      2.0409999999999999      12.245999999999999      38.778999999999996
   160   1      2.0409999999999999      14.286999999999999                  36.738
   161   1                       0      16.327999999999999                       0
   162   1                       0                  18.369      2.0409999999999999
   163   1      2.0409999999999999      16.327999999999999      2.0409999999999999
   164   1      2.0409999999999999                  18.369                       0
   165   1                       0      16.327999999999999      4.0819999999999999
   166   1                       0                  18.369      6.1229999999999993
   167   1      2.0409999999999999      16.327999999999999      6.1229999999999993
   168   1      2.0409999999999999                  18.369      4.0819999999999999
   169   1                       0      16.327999999999999      8.1639999999999997
   170   1                       0                  18.369                  10.205
   171   1      2.0409999999999999      16.327999999999999                  10.205
   172   1      2.0409999999999999                  18.369      8.1639999999999997
   173   1                       0      16.327999999999999      12.245999999999999
   174   1                       0                  18.369      14.286999999999999
   175   1      2.0409999999999999      16.327999999999999      14.286999999999999
   176   1      2.0409999999999999                  18.369      12.245999999999999
   177   1                       0      16.327999999999999      16.327999999999999
   178   1                       0                  18.369                  18.369
   179   1      2.0409999999999999      16.327999999999999                  18.369
   180   1      2.0409999999999999                  18.369      16.327999999999999
   181   1                       0      16.327999999999999                   20.41
   182   1                       0                  18.369      22.451000000000001
   183   1      2.0409999999999999      16.327999999999999      22.451000000000001
   184   1      2.0409999999999999                  18.369                   20.41
   185   1                       0      16.327999999999999      24.491999999999997
   186   1                       0                  18.369      26.532999999999998
   187   1      2.0409999999999999      16.327999999999999      26.532999999999998
   188   1      2.0409999999999999                  18.369      24.491999999999997
   189   1                       0      16.327999999999999      28.573999999999998
   190   1                       0                  18.369      30.614999999999998
   191   1      2.0409999999999999      16.327999999999999      30.614999999999998
   192   1      2.0409999999999999                  18.369      28.573999999999998
   193   1                       0      16.327999999999999      32.655999999999999
   194   1                       0                  18.369      34.696999999999996
   195   1      2.0409999999999999      16.327999999999999      34.696999999999996
   196   1      2.0409999999999999                  18.369      32.655999999999999
   197   1                       0      16.327999999999999                  36.738
   198   1                       0                  18.369      38.778999999999996
   199   1      2.0409999999999999      16.327999999999999      38.778999999999996
   200   1      2.0409999999999999                  18.369                  36.738
   201   1                       0                   20.41                       0
   202   1                       0      22.451000000000001      2.0409999999999999
   203   1      2.0409999999999999                   20.41      2.0409999999999999
   204   1      2.0409999999999999      22.451000000000001                       0
   205   1                       0                   20.41      4.0819999999999999
   206   1                       0      22.451000000000001      6.1229999999999993
   207   1      2.0409999999999999                   20.41      6.1229999999999993
   208   1      2.0409999999999999      22.451000000000001      4.0819999999999999
   209   1                       0                   20.41      8.1639999999999997
   210   1                       0      22.451000000000001                  10.205
   211   1      2.0409999999999999                   20.41                  10.205
   212   1      2.0409999999999999      22.451000000000001      8.1639999999999997
   213   1                       0                   20.41      12.245999999999999
   214   1                       0      22.451000000000001      14.286999999999999
   215   1      2.0409999999999999                   20.41      14.286999999999999
   216   1      2.0409999999999999      22.451000000000001      12.245999999999999
   217   1                       0                   20.41      16.327999999999999
   218   1                       0      22.451000000000001                  18.369
   219   1      2.0409999999999999                   20.41                  18.369
   220   1      2.0409999999999999      22.451000000000001      16.327999999999999
   221   1                       0                   20.41                   20.41
   222   1                       0      22.451000000000001      22.451000000000001
   223   1      2.0409999999999999                   20.41      22.451000000000001
   224   1      2.0409999999999999      22.451000000000001                   20.41
   225   1                       0                   20.41      24.491999999999997
   226   1                       0      22.451000000000001      26.532999999999998
   227   1      2.0409999999999999                   20.41      26.532999999999998
   228   1      2.0409999999999999      22.451000000000001      24.491999999999997
   229   1                       0                   20.41      28.573999999999998
   230   1                       0      22.451000000000001      30.614999999999998
   231   1      2.0409999999999999                   20.41      30.614999999999998
   232   1      2.0409999999999999      22.451000000000001      28.573999999999998
   233   1                       0                   20.41      32.655999999999999
   234   1                       0      22.451000000000001      34.696999999999996
   235   1      2.0409999999999999                   20.41      34.696999999999996
   236   1      2.0409999999999999      22.451000000000001      32.655999999999999
   237   1                       0                   20.41                  36.738
   238   1                       0      22.451000000000001      38.778999999999996
   239   1      2.0409999999999999                   20.41      38.778999999999996
   240   1      2.0409999999999999      22.451000000000001                  36.738
   241   1                       0      24.491999999999997                       0
   242   1                       0      26.532999999999998      2.0409999999999999
   243   1      2.0409999999999999      24.491999999999997      2.0409999999999999
   244   1      2.0409999999999999      26.532999999999998                       0
   245   1                       0      24.491999999999997      4.0819999999999999
   246   1                       0      26.532999999999998      6.1229999999999993
   247   1      2.0409999999999999      24.491999999999997      6.1229999999999993
   248   1      2.0409999999999999      26.532999999999998      4.0819999999999999
   249   1                       0      24.491999999999997      8.1639999999999997
   250   1                       0      26.532999999999998                  10.205
   251   1      2.0409999999999999      24.491999999999997                  10.205
   252   1      2.0409999999999999      26.532999999999998      8.1639999999999997
   253   1                       0      24.491999999999997      12.245999999999999
   254   1                       0      26.532999999999998      14.286999999999999
   255   1      2.0409999999999999      24.491999999999997      14.286999999999999
   256   1      2.0409999999999999      26.532999999999998      12.245999999999999
   257   1                       0      24.491999999999997      16.327999999999999
   258   1                       0      26.532999999999998                  18.369
   259   1      2.0409999999999999      24.491999999999997                  18.369
   260   1      2.0409999999999999      26.532999999999998      16.327999999999999
   261   1                       0      24.491999999999997                   20.41
   262   1                       0      26.532999999999998      22.451000000000001
   263   1      2.0409999999999999      24.491999999999997      22.451000000000001
   264   1      2.0409999999999999      26.532999999999998                   20.41
   265   1                       0      24.491999999999997      24.491999999999997
   266   1                       0      26.532999999999998      26.532999999999998
   267   1      2.0409999999999999      24.491999999999997      26.532999999999998
   268   1      2.0409999999999999      26.532999999999998      24.491999999999997
   269   1                       0      24.491999999999997      28.573999999999998
   270   1                       0      26.532999999999998      30.614999999999998
   271   1      2.0409999999999999      24.491999999999997      30.614999999999998
   272   1      2.0409999999999999      26.532999999999998      28.573999999999998
   273   1                       0      24.491999999999997      32.655999999999999
   274   1                       0      26.532999999999998      34.696999999999996
   275   1      2.0409999999999999      24.491999999999997      34.696999999999996
   276   1      2.0409999999999999      26.532999999999998      32.655999999999999
   277   1                       0      24.491999999999997                  36.738
   278   1                       0      26.532999999999998      38.778999999999996
   279   1      2.0409999999999999      24.491999999999997      38.778999999999996
   280   1      2.0409999999999999      26.532999999999998                  36.738
   281   1                       0      28.573999999999998                       0
   282   1                       0      30.614999999999998      2.0409999999999999
   283   1      2.0409999999999999      28.573999999999998      2.0409999999999999
   284   1      2.0409999999999999      30.614999999999998                       0
   285   1                       0      28.573999999999998      4.0819999999999999
   286   1                       0      30.614999999999998      6.1229999999999993
   287   1      2.0409999999999999      28.573999999999998      6.1229999999999993
   288   1      2.0409999999999999      30.614999999999998      4.0819999999999999
   289   1                       0      28.573999999999998      8.1639999999999997
   290   1                       0      30.614999999999998                  10.205
   291   1      2.0409999999999999      28.573999999999998                  10.205
   292   1      2.0409999999999999      30.614999999999998      8.1639999999999997
   293   1                       0      28.573999999999998      12.245999999999999
   294   1                       0      30.614999999999998      14.286999999999999
   295   1      2.0409999999999999      28.573999999999998      14.286999999999999
   296   1      2.0409999999999999      30.614999999999998      12.245999999999999
   297   1                       0      28.573999999999998      16.327999999999999
   298   1                       0      30.614999999999998                  18.369
   299   1      2.0409999999999999      28.573999999999998                  18.369
   300   1      2.0409999999999999      30.614999999999998      16.327999999999999
   301   1                       0      28.573999999999998                   20.41
   302   1                       0      30.614999999999998      22.451000000000001
   303   1      2.0409999999999999      28.573999999999998      22.451000000000001
   304   1      2.0409999999999999      30.614999999999998                   20.41
   305   1                       0      28.573999999999998      24.491999999999997
   306   1                       0      30.614999999999998      26.532999999999998
   307   1      2.0409999999999999      28.573999999999998      26.532999999999998
   308   1      2.0409999999999999      30.614999999999998      24.491999999999997
   309   1                       0      28.573999999999998      28.573999999999998
   310   1                       0      30.614999999999998      30.614999999999998
   311   1      2.0409999999999999      28.573999999999998      30.614999999999998
   312   1      2.0409999999999999      30.614999999999998      28.573999999999998
   313   1                       0      28.573999999999998      32.655999999999999
   314   1                       0      30.614999999999998      34.696999999999996
   315   1      2.0409999999999999      28.573999999999998      34.696999999999996
   316   1      2.0409999999999999      30.614999999999998      32.655999999999999
   317   1                       0      28.573999999999998                  36.738
   318   1                       0      30.614999999999998      38.778999999999996
   319   1      2.0409999999999999      28.573999999999998      38.778999999999996
   320   1      2.0409999999999999      30.614999999999998                  36.738
   321   1                       0      32.655999999999999                       0
   322   1                       0      34.696999999999996      2.0409999999999999
   323   1      2.0409999999999999      32.655999999999999      2.0409999999999999
   324   1      2.0409999999999999      34.696999999999996                       0
   325   1                       0      32.655999999999999      4.0819999999999999
   326   1                       0      34.696999999999996      6.1229999999999993
   327   1      2.0409999999999999      32.655999999999999      6.1229999999999993
   328   1      2.0409999999999999      34.696999999999996      4.0819999999999999
   329   1                       0      32.655999999999999      8.1639999999999997
   330   1                       0      34.696999999999996                  10.205
   331   1      2.0409999999999999      32.655999999999999                  10.205
   332   1      2.0409999999999999      34.696999999999996      8.1639999999999997
   333   1                       0      32.655999999999999      12.245999999999999
   334   1                       0      34.696999999999996      14.286999999999999
   335   1      2.0409999999999999      32.655999999999999      14.286999999999999
   336   1      2.0409999999999999      34.696999999999996      12.245999999999999
   337   1                       0      32.655999999999999      16.327999999999999
   338   1                       0      34.696999999999996                  18.369
   339   1      2.0409999999999999      32.655999999999999                  18.369
   340   1      2.0409999999999999      34.696999999999996      16.327999999999999
   341   1                       0      32.655999999999999                   20.41
   342   1                       0      34.696999999999996      22.451000000000001
   343   1      2.0409999999999999      32.655999999999999      22.451000000000001
   344   1      2.0409999999999999      34.696999999999996                   20.41
   345   1                       0      32.655999999999999      24.491999999999997
   346   1                       0      34.696999999999996      26.532999999999998
   347   1      2.0409999999999999      32.655999999999999      26.532999999999998
   348   1      2.0409999999999999      34.696999999999996      24.491999999999997
   349   1                       0      32.655999999999999      28.573999999999998
   350   1                       0      34.696999999999996      30.614999999999998
   351   1      2.0409999999999999      32.655999999999999      30.614999999999998
   352   1      2.0409999999999999      34.696999999999996      28.573999999999998
   353   1                       0      32.655999999999999      32.655999999999999
   354   1                       0      34.696999999999996      34.696999999999996
   355   1      2.0409999999999999      32.655999999999999      34.696999999999996
   356   1      2.0409999999999999      34.696999999999996      32.655999999999999
   357   1                       0      32.655999999999999                  36.738
   358   1                       0      34.696999999999996      38.778999999999996