(written by ASE)

6911 atoms
1 atom types

0.0      48.983999999999995  xlo xhi
0.0      48.983999999999995  ylo yhi
0.0      48.983999999999995  zlo zhi

Masses

     1      107.86819997225152 # Ag

Atoms # atomic

     1   1                       0                       0                       0
     2   1                       0      2.0409999999999999      2.0409999999999999
     3   1      2.0409999999999999                       0      2.0409999999999999
     4   1      2.0409999999999999      2.0409999999999999                       0
     5   1                       0                       0      4.0819999999999999
     6   1                       0      2.0409999999999999      6.1229999999999993
     7   1      2.0409999999999999                       0      6.1229999999999993
     8   1      2.0409999999999999      2.0409999999999999      4.0819999999999999
     9   1                       0                       0      8.1639999999999997
    10   1                       0      2.0409999999999999                  10.205
    11   1      2.0409999999999999                       0                  10.205
    12   1      2.0409999999999999      2.0409999999999999      8.1639999999999997
    13   1                       0                       0      12.245999999999999
    14   1                       0      2.0409999999999999      14.286999999999999
    15   1      2.0409999999999999                       0      14.286999999999999
    16   1      2.0409999999999999      2.0409999999999999      12.245999999999999
    17   1                       0                       0      16.327999999999999
    18   1                       0      2.0409999999999999                  18.369
    19   1      2.0409999999999999                       0                  18.369
    20   1      2.0409999999999999      2.0409999999999999      16.327999999999999
    21   1                       0                       0                   20.41
    22   1                       0      2.0409999999999999      22.451000000000001
    23   1      2.0409999999999999                       0      22.451000000000001
    24   1      2.0409999999999999      2.0409999999999999                   20.41
    25   1                       0                       0      24.491999999999997
    26   1                       0      2.0409999999999999      26.532999999999998
    27   1      2.0409999999999999                       0      26.532999999999998
    28   1      2.0409999999999999      2.0409999999999999      24.491999999999997
    29   1                       0                       0      28.573999999999998
    30   1                       0      2.0409999999999999      30.614999999999998
    31   1      2.0409999999999999                       0      30.614999999999998
    32   1      2.0409999999999999      2.0409999999999999      28.573999999999998
    33   1                       0                       0      32.655999999999999
    34   1                       0      2.0409999999999999      34.696999999999996
    35   1      2.0409999999999999                       0      34.696999999999996
    36   1      2.0409999999999999      2.0409999999999999      32.655999999999999
    37   1                       0                       0                  36.738
    38   1                       0      2.0409999999999999      38.778999999999996
    39   1      2.0409999999999999                       0      38.778999999999996
    40   1      2.0409999999999999      2.0409999999999999                  36.738
    41   1                       0                       0                   40.82
    42   1                       0      2.0409999999999999      42.860999999999997
    43   1      2.0409999999999999                       0      42.860999999999997
    44   1      2.0409999999999999      2.0409999999999999                   40.82
    45   1                       0                       0      44.902000000000001
    46   1                       0      2.0409999999999999      46.942999999999998
    47   1      2.0409999999999999                       0      46.942999999999998
    48   1      2.0409999999999999      2.0409999999999999      44.902000000000001
    49   1                       0      4.0819999999999999                       0
    50   1                       0      6.1229999999999993      2.0409999999999999
    51   1      2.0409999999999999      4.0819999999999999      2.0409999999999999
    52   1      2.0409999999999999      6.1229999999999993                       0
    53   1                       0      4.0819999999999999      4.0819999999999999
    54   1                       0      6.1229999999999993      6.1229999999999993
    55   1      2.0409999999999999      4.0819999999999999      6.1229999999999993
    56   1      2.0409999999999999      6.1229999999999993      4.0819999999999999
    57   1                       0      4.0819999999999999      8.1639999999999997
    58   1                       0      6.1229999999999993                  10.205
    59   1      2.0409999999999999      4.0819999999999999                  10.205
    60   1      2.0409999999999999      6.1229999999999993      8.1639999999999997
    61   1                       0      4.0819999999999999      12.245999999999999
    62   1                       0      6.1229999999999993      14.286999999999999
    63   1      2.0409999999999999      4.0819999999999999      14.286999999999999
    64   1      2.0409999999999999      6.1229999999999993      12.245999999999999
    65   1                       0      4.0819999999999999      16.327999999999999
    66   1                       0      6.1229999999999993                  18.369
    67   1      2.0409999999999999      4.0819999999999999                  18.369
    68   1      2.0409999999999999      6.1229999999999993      16.327999999999999
    69   1                       0      4.0819999999999999                   20.41
    70   1                       0      6.1229999999999993      22.451000000000001
    71   1      2.0409999999999999      4.0819999999999999      22.451000000000001
    72   1      2.0409999999999999      6.1229999999999993                   20.41
    73   1                       0      4.0819999999999999      24.491999999999997
    74   1                       0      6.1229999999999993      26.532999999999998
    75   1      2.0409999999999999      4.0819999999999999      26.532999999999998
    76   1      2.0409999999999999      6.1229999999999993      24.491999999999997
    77   1                       0      4.0819999999999999      28.573999999999998
    78   1                       0      6.1229999999999993      30.614999999999998
    79   1      2.0409999999999999      4.0819999999999999      30.614999999999998
    80   1      2.0409999999999999      6.1229999999999993      28.573999999999998
    81   1                       0      4.0819999999999999      32.655999999999999
    82   1                       0      6.1229999999999993      34.696999999999996
    83   1      2.0409999999999999      4.0819999999999999      34.696999999999996
    84   1      2.0409999999999999      6.1229999999999993      32.655999999999999
    85   1                       0      4.0819999999999999                  36.738
    86   1                       0      6.1229999999999993      38.778999999999996
    87   1      2.0409999999999999      4.0819999999999999      38.778999999999996
    88   1      2.0409999999999999      6.1229999999999993                  36.738
    89   1                       0      4.0819999999999999                   40.82
    90   1                       0      6.1229999999999993      42.860999999999997
    91   1      2.0409999999999999      4.0819999999999999      42.860999999999997
    92   1      2.0409999999999999      6.1229999999999993                   40.82
    93   1                       0      4.0819999999999999      44.902000000000001
    94   1                       0      6.1229999999999993      46.942999999999998
    95   1      2.0409999999999999      4.0819999999999999      46.942999999999998
    96   1      2.0409999999999999      6.1229999999999993      44.902000000000001
    97   1                       0      8.1639999999999997                       0
    98   1                       0                  10.205      2.0409999999999999
    99   1      2.0409999999999999      8.1639999999999997      2.0409999999999999
   100   1      2.0409999999999999                  10.205                       0
   101   1                       0      8.1639999999999997      4.0819999999999999
   102   1                       0                  10.205      6.1229999999999993
   103   1      2.0409999999999999      8.1639999999999997      6.1229999999999993
   104   1      2.0409999999999999                  10.205      4.0819999999999999
   105   1                       0      8.1639999999999997      8.1639999999999997
   106   1                       0                  10.205                  10.205
   107   1      2.0409999999999999      8.1639999999999997                  10.205
   108   1      2.0409999999999999                  10.205      8.1639999999999997
   109   1                       0      8.1639999999999997      12.245999999999999
   110   1                       0                  10.205      14.286999999999999
   111   1      2.0409999999999999      8.1639999999999997      14.286999999999999
   112   1      2.0409999999999999                  10.205      12.245999999999999
   113   1                       0      8.1639999999999997      16.327999999999999
   114   1                       0                  10.205                  18.369
   115   1      2.0409999999999999      8.1639999999999997                  18.369
   116   1      2.0409999999999999                  10.205      16.327999999999999
   117   1                       0      8.1639999999999997                   20.41
   118   1                       0                  10.205      22.451000000000001
   119   1      2.0409999999999999      8.1639999999999997      22.451000000000001
   120   1      2.0409999999999999                  10.205                   20.41
   121   1                       0      8.1639999999999997      24.491999999999997
   122   1                       0                  10.205      26.532999999999998
   123   1      2.0409999999999999      8.1639999999999997      26.532999999999998
   124   1      2.0409999999999999                  10.205      24.491999999999997
   125   1                       0      8.1639999999999997      28.573999999999998
   126   1                       0                  10.205      30.614999999999998
   127   1      2.0409999999999999      8.1639999999999997      30.614999999999998
   128   1      2.0409999999999999                  10.205      28.573999999999998
   129   1                       0      8.1639999999999997      32.655999999999999
   130   1                       0                  10.205      34.696999999999996
   131   1      2.0409999999999999      8.1639999999999997      34.696999999999996
   132   1      2.0409999999999999                  10.205      32.655999999999999
   133   1                       0      8.1639999999999997                  36.738
   134   1                       0                  10.205      38.778999999999996
   135   1      2.0409999999999999      8.1639999999999997      38.778999999999996
   136   1      2.0409999999999999                  10.205                  36.738
   137   1                       0      8.1639999999999997                   40.82
   138   1                       0                  10.205      42.860999999999997
   139   1      2.0409999999999999      8.1639999999999997      42.860999999999997
   140   1      2.0409999999999999                  10.205                   40.82
   141   1                       0      8.1639999999999997      44.902000000000001
   142   1                       0                  10.205      46.942999999999998
   143   1      2.0409999999999999      8.1639999999999997      46.942999999999998
   144   1      2.0409999999999999                  10.205      44.902000000000001
   145   1                       0      12.245999999999999                       0
   146   1                       0      14.286999999999999      2.0409999999999999
   147   1      2.0409999999999999      12.245999999999999      2.0409999999999999
   148   1      2.0409999999999999      14.286999999999999                       0
   149   1                       0      12.245999999999999      4.0819999999999999
   150   1                       0      14.286999999999999      6.1229999999999993
   151   1      2.0409999999999999      12.245999999999999      6.1229999999999993
   152   1      2.0409999999999999      14.286999999999999      4.0819999999999999
   153   1                       0      12.245999999999999      8.1639999999999997
   154   1                       0      14.286999999999999                  10.205
   155   1      2.0409999999999999      12.245999999999999                  10.205
   156   1      2.0409999999999999      14.286999999999999      8.1639999999999997
   157   1                       0      12.245999999999999      12.245999999999999
   158   1                       0      14.286999999999999      14.286999999999999
   159   1      2.0409999999999999      12.245999999999999      14.286999999999999
   160   1      2.0409999999999999      14.286999999999999      12.245999999999999
   161   1                       0      12.245999999999999      16.327999999999999
   162   1                       0      14.286999999999999                  18.369
   163   1      2.0409999999999999      12.245999999999999                  18.369
   164   1      2.0409999999999999      14.286999999999999      16.327999999999999
   165   1                       0      12.245999999999999                   20.41
   166   1                       0      14.286999999999999      22.451000000000001
   167   1      2.0409999999999999      12.245999999999999      22.451000000000001
   168   1      2.0409999999999999      14.286999999999999                   20.41
   169   1                       0      12.245999999999999      24.491999999999997
   170   1                       0      14.286999999999999      26.532999999999998
   171   1      2.0409999999999999      12.245999999999999      26.532999999999998
   172   1      2.0409999999999999      14.286999999999999      24.491999999999997
   173   1                       0      12.245999999999999      28.573999999999998
   174   1                       0      14.286999999999999      30.614999999999998
   175   1      2.0409999999999999      12.245999999999999      30.614999999999998
   176   1      2.0409999999999999      14.286999999999999      28.573999999999998
   177   1                       0      12.245999999999999      32.655999999999999
   178   1                       0      14.286999999999999      34.696999999999996
   179   1      2.0409999999999999      12.245999999999999      34.696999999999996
   180   1      2.0409999999999999      14.286999999999999      32.655999999999999
   181   1                       0      12.245999999999999                  36.738
   182   1                       0      14.286999999999999      38.778999999999996
   183   1      2.0409999999999999      12.245999999999999      38.778999999999996
   184   1      2.0409999999999999      14.286999999999999                  36.738
   185   1                       0      12.245999999999999                   40.82
   186   1                       0      14.286999999999999      42.860999999999997
   187   1      2.0409999999999999      12.245999999999999      42.860999999999997
   188   1      2.0409999999999999      14.286999999999999                   40.82
   189   1                       0      12.245999999999999      44.902000000000001
   190   1                       0      14.286999999999999      46.942999999999998
   191   1      2.0409999999999999      12.245999999999999      46.942999999999998
   192   1      2.0409999999999999      14.286999999999999      44.902000000000001
   193   1                       0      16.327999999999999                       0
   194   1                       0                  18.369      2.0409999999999999
   195   1      2.0409999999999999      16.327999999999999      2.0409999999999999
   196   1      2.0409999999999999                  18.369                       0
   197   1                       0      16.327999999999999      4.0819999999999999
   198   1                       0                  18.369      6.1229999999999993
   199   1      2.0409999999999999      16.327999999999999      6.1229999999999993
   200   1      2.0409999999999999                  18.369      4.0819999999999999
   201   1                       0      16.327999999999999      8.1639999999999997
   202   1                       0                  18.369                  10.205
   203   1      2.0409999999999999      16.327999999999999                  10.205
   204   1      2.0409999999999999                  18.369      8.1639999999999997
   205   1                       0      16.327999999999999      12.245999999999999
   206   1                       0                  18.369      14.286999999999999
   207   1      2.0409999999999999      16.327999999999999      14.286999999999999
   208   1      2.0409999999999999                  18.369      12.245999999999999
   209   1                       0      16.327999999999999      16.327999999999999
   210   1                       0                  18.369                  18.369
   211   1      2.0409999999999999      16.327999999999999                  18.369
   212   1      2.0409999999999999                  18.369      16.327999999999999
   213   1                       0      16.327999999999999                   20.41
   214   1                       0                  18.369      22.451000000000001
   215   1      2.0409999999999999      16.327999999999999      22.451000000000001
   216   1      2.0409999999999999                  18.369                   20.41
   217   1                       0      16.327999999999999      24.491999999999997
   218   1                       0                  18.369      26.532999999999998
   219   1      2.0409999999999999      16.327999999999999      26.532999999999998
   220   1      2.0409999999999999                  18.369      24.491999999999997
   221   1                       0      16.327999999999999      28.573999999999998
   222   1                       0                  18.369      30.614999999999998
   223   1      2.0409999999999999      16.327999999999999      30.614999999999998
   224   1      2.0409999999999999                  18.369      28.573999999999998
   225   1                       0      16.327999999999999      32.655999999999999
   226   1                       0                  18.369      34.696999999999996
   227   1      2.0409999999999999      16.327999999999999      34.696999999999996
   228   1      2.0409999999999999                  18.369      32.655999999999999
   229   1                       0      16.327999999999999                  36.738
   230   1                       0                  18.369      38.778999999999996
   231   1      2.0409999999999999      16.327999999999999      38.778999999999996
   232   1      2.0409999999999999                  18.369                  36.738
   233   1                       0      16.327999999999999                   40.82
   234   1                       0                  18.369      42.860999999999997
   235   1      2.0409999999999999      16.327999999999999      42.860999999999997
   236   1      2.0409999999999999                  18.369                   40.82
   237   1                       0      16.327999999999999      44.902000000000001
   238   1                       0                  18.369      46.942999999999998
   239   1      2.0409999999999999      16.327999999999999      46.942999999999998
   240   1      2.0409999999999999                  18.369      44.902000000000001
   241   1                       0                   20.41                       0
   242   1                       0      22.451000000000001      2.0409999999999999
   243   1      2.0409999999999999                   20.41      2.0409999999999999
   244   1      2.0409999999999999      22.451000000000001                       0
   245   1                       0                   20.41      4.0819999999999999
   246   1                       0      22.451000000000001      6.1229999999999993
   247   1      2.0409999999999999                   20.41      6.1229999999999993
   248   1      2.0409999999999999      22.451000000000001      4.0819999999999999
   249   1                       0                   20.41      8.1639999999999997
   250   1                       0      22.451000000000001                  10.205
   251   1      2.0409999999999999                   20.41                  10.205
   252   1      2.0409999999999999      22.451000000000001      8.1639999999999997
   253   1                       0                   20.41      12.245999999999999
   254   1                       0      22.451000000000001      14.286999999999999
   255   1      2.0409999999999999                   20.41      14.286999999999999
   256   1      2.0409999999999999      22.451000000000001      12.245999999999999
   257   1                       0                   20.41      16.327999999999999
   258   1                       0      22.451000000000001                  18.369
   259   1      2.0409999999999999                   20.41                  18.369
   260   1      2.0409999999999999      22.451000000000001      16.327999999999999
   261   1                       0                   20.41                   20.41
   262   1                       0      22.451000000000001      22.451000000000001
   263   1      2.0409999999999999                   20.41      22.451000000000001
   264   1      2.0409999999999999      22.451000000000001                   20.41
   265   1                       0                   20.41      24.491999999999997
   266   1                       0      22.451000000000001      26.532999999999998
   267   1      2.0409999999999999                   20.41      26.532999999999998
   268   1      2.0409999999999999      22.451000000000001      24.491999999999997
   269   1                       0                   20.41      28.573999999999998
   270   1                       0      22.451000000000001      30.614999999999998
   271   1      2.0409999999999999                   20.41      30.614999999999998
   272   1      2.0409999999999999      22.451000000000001      28.573999999999998
   273   1                       0                   20.41      32.655999999999999
   274   1                       0      22.451000000000001      34.696999999999996
   275   1      2.0409999999999999                   20.41      34.696999999999996
   276   1      2.0409999999999999      22.451000000000001      32.655999999999999
   277   1                       0                   20.41                  36.738
   278   1                       0      22.451000000000001      38.778999999999996
   279   1      2.0409999999999999                   20.41      38.778999999999996
   280   1      2.0409999999999999      22.451000000000001                  36.738
   281   1                       0                   20.41                   40.82
   282   1                       0      22.451000000000001      42.860999999999997
   283   1      2.0409999999999999                   20.41      42.860999999999997
   284   1      2.0409999999999999      22.451000000000001                   40.82
   285   1                       0                   20.41      44.902000000000001
   286   1                       0      22.451000000000001      46.942999999999998
   287   1      2.0409999999999999                   20.41      46.942999999999998
   288   1      2.0409999999999999      22.451000000000001      44.902000000000001
   289   1                       0      24.491999999999997                       0
   290   1                       0      26.532999999999998      2.0409999999999999
   291   1      2.0409999999999999      24.491999999999997      2.0409999999999999
   292   1      2.0409999999999999      26.532999999999998                       0
   293   1                       0      24.491999999999997      4.0819999999999999
   294   1                       0      26.532999999999998      6.1229999999999993
   295   1      2.0409999999999999      24.491999999999997      6.1229999999999993
   296   1      2.0409999999999999      26.532999999999998      4.0819999999999999
   297   1                       0      24.491999999999997      8.1639999999999997
   298   1                       0      26.532999999999998                  10.205
   299   1      2.0409999999999999      24.491999999999997                  10.205
   300   1      2.0409999999999999      26.532999999999998      8.1639999999999997
   301   1                       0      24.491999999999997      12.245999999999999
   302   1                       0      26.532999999999998      14.286999999999999
   303   1      2.0409999999999999      24.491999999999997      14.286999999999999
   304   1      2.0409999999999999      26.532999999999998      12.245999999999999
   305   1                       0      24.491999999999997      16.327999999999999
   306   1                       0      26.532999999999998                  18.369
   307   1      2.0409999999999999      24.491999999999997                  18.369
   308   1      2.0409999999999999      26.532999999999998      16.327999999999999
   309   1                       0      24.491999999999997                   20.41
   310   1                       0      26.532999999999998      22.451000000000001
   311   1      2.0409999999999999      24.491999999999997      22.451000000000001
   312   1      2.0409999999999999      26.532999999999998                   20.41
   313   1                       0      24.491999999999997      24.491999999999997
   314   1                       0      26.532999999999998      26.532999999999998
   315   1      2.0409999999999999      24.491999999999997      26.532999999999998
   316   1      2.0409999999999999      26.532999999999998      24.491999999999997
   317   1                       0      24.491999999999997      28.573999999999998
   318   1                       0      26.532999999999998      30.614999999999998
   319   1      2.0409999999999999      24.491999999999997      30.614999999999998
   320   1      2.0409999999999999      26.532999999999998      28.573999999999998
   321   1                       0      24.491999999999997      32.655999999999999
   322   1                       0      26.532999999999998      34.696999999999996
   323   1      2.0409999999999999      24.491999999999997      34.696999999999996
   324   1      2.0409999999999999      26.532999999999998      32.655999999999999
   325   1                       0      24.491999999999997                  36.738
   326   1                       0      26.532999999999998      38.778999999999996
   327   1      2.0409999999999999      24.491999999999997      38.778999999999996
   328   1      2.0409999999999999      26.532999999999998                  36.738
   329   1                       0      24.491999999999997                   40.82
   330   1                       0      26.532999999999998      42.860999999999997
   331   1      2.0409999999999999      24.491999999999997      42.860999999999997
   332   1      2.0409999999999999      26.532999999999998                   40.82
   333   1                       0      24.491999999999997      44.902000000000001
   334   1                       0      26.532999999999998      46.942999999999998
   335   1      2.0409999999999999      24.491999999999997      46.942999999999998
   336   1      2.0409999999999999      26.532999999999998      44.902000000000001
   337   1                       0      28.573999999999998                       0
   338   1                       0      30.614999999999998      2.0409999999999999
   339   1      2.0409999999999999      28.573999999999998      2.0409999999999999
   340   1      2.0409999999999999      30.614999999999998                       0
   341   1                       0      28.573999999999998      4.0819999999999999
   342   1                       0      30.614999999999998      6.1229999999999993
   343   1      2.0409999999999999      28.573999999999998      6.1229999999999993
   344   1      2.0409999999999999      30.614999999999998      4.0819999999999999
   345   1                       0      28.573999999999998      8.1639999999999997
   346   1                       0      30.614999999999998                  10.205
   347   1      2.0409999999999999      28.573999999999998                  10.205
   348   1      2.0409999999999999      30.614999999999998      8.1639999999999997
   349   1                       0      28.573999999999998      12.245999999999999
   350   1                       0      30.614999999999998      14.286999999999999
   351   1      2.0409999999999999      28.573999999999998      14.286999999999999
   352   1      2.0409999999999999      30.614999999999998      12.245999999999999
   353   1                       0      28.573999999999998      16.327999999999999
   354   1                       0      30.614999999999998                  18.369
   355   1      2.0409999999999999      28.573999999999998                  18.369
   356   1      2.0409999999999999      30.614999999999998      16.327999999999999
   357   1                       0      28.573999999999998                   20.41
   358   1                       0      30.614999999999998      22.451000000000001