(written by ASE)

2915 atoms
1 atom types

0.0                  36.738  xlo xhi
0.0                  36.738  ylo yhi
0.0                  36.738  zlo zhi

Masses

     1      107.86819997225152 # Ag

Atoms # atomic

     1   1                       0                       0                       0
     2   1                       0      2.0409999999999999      2.0409999999999999
     3   1      2.0409999999999999                       0      2.0409999999999999
     4   1      2.0409999999999999      2.0409999999999999                       0
     5   1                       0                       0      4.0819999999999999
     6   1                       0      2.0409999999999999      6.1229999999999993
     7   1      2.0409999999999999                       0      6.1229999999999993
     8   1      2.0409999999999999      2.0409999999999999      4.0819999999999999
     9   1                       0                       0      8.1639999999999997
    10   1                       0      2.0409999999999999                  10.205
    11   1      2.0409999999999999                       0                  10.205
    12   1      2.0409999999999999      2.0409999999999999      8.1639999999999997
    13   1                       0                       0      12.245999999999999
    14   1                       0      2.0409999999999999      14.286999999999999
    15   1      2.0409999999999999                       0      14.286999999999999
    16   1      2.0409999999999999      2.0409999999999999      12.245999999999999
    17   1                       0                       0      16.327999999999999
    18   1                       0      2.0409999999999999                  18.369
    19   1      2.0409999999999999                       0                  18.369
    20   1      2.0409999999999999      2.0409999999999999      16.327999999999999
    21   1                       0                       0                   20.41
    22   1                       0      2.0409999999999999      22.451000000000001
    23   1      2.0409999999999999                       0      22.451000000000001
    24   1      2.0409999999999999      2.0409999999999999                   20.41
    25   1                       0                       0      24.491999999999997
    26   1                       0      2.0409999999999999      26.532999999999998
    27   1      2.0409999999999999                       0      26.532999999999998
    28   1      2.0409999999999999      2.0409999999999999      24.491999999999997
    29   1                       0                       0      28.573999999999998
    30   1                       0      2.0409999999999999      30.614999999999998
    31   1      2.0409999999999999                       0      30.614999999999998
    32   1      2.0409999999999999      2.0409999999999999      28.573999999999998
    33   1                       0                       0      32.655999999999999
    34   1                       0      2.0409999999999999      34.696999999999996
    35   1      2.0409999999999999                       0      34.696999999999996
    36   1      2.0409999999999999      2.0409999999999999      32.655999999999999
    37   1                       0      4.0819999999999999                       0
    38   1                       0      6.1229999999999993      2.0409999999999999
    39   1      2.0409999999999999      4.0819999999999999      2.0409999999999999
    40   1      2.0409999999999999      6.1229999999999993                       0
    41   1                       0      4.0819999999999999      4.0819999999999999
    42   1                       0      6.1229999999999993      6.1229999999999993
    43   1      2.0409999999999999      4.0819999999999999      6.1229999999999993
    44   1      2.0409999999999999      6.1229999999999993      4.0819999999999999
    45   1                       0      4.0819999999999999      8.1639999999999997
    46   1                       0      6.1229999999999993                  10.205
    47   1      2.0409999999999999      4.0819999999999999                  10.205
    48   1      2.0409999999999999      6.1229999999999993      8.1639999999999997
    49   1                       0      4.0819999999999999      12.245999999999999
    50   1                       0      6.1229999999999993      14.286999999999999
    51   1      2.0409999999999999      4.0819999999999999      14.286999999999999
    52   1      2.0409999999999999      6.1229999999999993      12.245999999999999
    53   1                       0      4.0819999999999999      16.327999999999999
    54   1                       0      6.1229999999999993                  18.369
    55   1      2.0409999999999999      4.0819999999999999                  18.369
    56   1      2.0409999999999999      6.1229999999999993      16.327999999999999
    57   1                       0      4.0819999999999999                   20.41
    58   1                       0      6.1229999999999993      22.451000000000001
    59   1      2.0409999999999999      4.0819999999999999      22.451000000000001
    60   1      2.0409999999999999      6.1229999999999993                   20.41
    61   1                       0      4.0819999999999999      24.491999999999997
    62   1                       0      6.1229999999999993      26.532999999999998
    63   1      2.0409999999999999      4.0819999999999999      26.532999999999998
    64   1      2.0409999999999999      6.1229999999999993      24.491999999999997
    65   1                       0      4.0819999999999999      28.573999999999998
    66   1                       0      6.1229999999999993      30.614999999999998
    67   1      2.0409999999999999      4.0819999999999999      30.614999999999998
    68   1      2.0409999999999999      6.1229999999999993      28.573999999999998
    69   1                       0      4.0819999999999999      32.655999999999999
    70   1                       0      6.1229999999999993      34.696999999999996
    71   1      2.0409999999999999      4.0819999999999999      34.696999999999996
    72   1      2.0409999999999999      6.1229999999999993      32.655999999999999
    73   1                       0      8.1639999999999997                       0
    74   1                       0                  10.205      2.0409999999999999
    75   1      2.0409999999999999      8.1639999999999997      2.0409999999999999
    76   1      2.0409999999999999                  10.205                       0
    77   1                       0      8.1639999999999997      4.0819999999999999
    78   1                       0                  10.205      6.1229999999999993
    79   1      2.0409999999999999      8.1639999999999997      6.1229999999999993
    80   1      2.0409999999999999                  10.205      4.0819999999999999
    81   1                       0      8.1639999999999997      8.1639999999999997
    82   1                       0                  10.205                  10.205
    83   1      2.0409999999999999      8.1639999999999997                  10.205
    84   1      2.0409999999999999                  10.205      8.1639999999999997
    85   1                       0      8.1639999999999997      12.245999999999999
    86   1                       0                  10.205      14.286999999999999
    87   1      2.0409999999999999      8.1639999999999997      14.286999999999999
    88   1      2.0409999999999999                  10.205      12.245999999999999
    89   1                       0      8.1639999999999997      16.327999999999999
    90   1                       0                  10.205                  18.369
    91   1      2.0409999999999999      8.1639999999999997                  18.369
    92   1      2.0409999999999999                  10.205      16.327999999999999
    93   1                       0      8.1639999999999997                   20.41
    94   1                       0                  10.205      22.451000000000001
    95   1      2.0409999999999999      8.1639999999999997      22.451000000000001
    96   1      2.0409999999999999                  10.205                   20.41
    97   1                       0      8.1639999999999997      24.491999999999997
    98   1                       0                  10.205      26.532999999999998
    99   1      2.0409999999999999      8.1639999999999997      26.532999999999998
   100   1      2.0409999999999999                  10.205      24.491999999999997
   101   1                       0      8.1639999999999997      28.573999999999998
   102   1                       0                  10.205      30.614999999999998
   103   1      2.0409999999999999      8.1639999999999997      30.614999999999998
   104   1      2.0409999999999999                  10.205      28.573999999999998
   105   1                       0      8.1639999999999997      32.655999999999999
   106   1                       0                  10.205      34.696999999999996
   107   1      2.0409999999999999      8.1639999999999997      34.696999999999996
   108   1      2.0409999999999999                  10.205      32.655999999999999
   109   1                       0      12.245999999999999                       0
   110   1                       0      14.286999999999999      2.0409999999999999
   111   1      2.0409999999999999      12.245999999999999      2.0409999999999999
   112   1      2.0409999999999999      14.286999999999999                       0
   113   1                       0      12.245999999999999      4.0819999999999999
   114   1                       0      14.286999999999999      6.1229999999999993
   115   1      2.0409999999999999      12.245999999999999      6.1229999999999993
   116   1      2.0409999999999999      14.286999999999999      4.0819999999999999
   117   1                       0      12.245999999999999      8.1639999999999997
   118   1                       0      14.286999999999999                  10.205
   119   1      2.0409999999999999      12.245999999999999                  10.205
   120   1      2.0409999999999999      14.286999999999999      8.1639999999999997
   121   1                       0      12.245999999999999      12.245999999999999
   122   1                       0      14.286999999999999      14.286999999999999
   123   1      2.0409999999999999      12.245999999999999      14.286999999999999
   124   1      2.0409999999999999      14.286999999999999      12.245999999999999
   125   1                       0      12.245999999999999      16.327999999999999
   126   1                       0      14.286999999999999                  18.369
   127   1      2.0409999999999999      12.245999999999999                  18.369
   128   1      2.0409999999999999      14.286999999999999      16.327999999999999
   129   1                       0      12.245999999999999                   20.41
   130   1                       0      14.286999999999999      22.451000000000001
   131   1      2.0409999999999999      12.245999999999999      22.451000000000001
   132   1      2.0409999999999999      14.286999999999999                   20.41
   133   1                       0      12.245999999999999      24.491999999999997
   134   1                       0      14.286999999999999      26.532999999999998
   135   1      2.0409999999999999      12.245999999999999      26.532999999999998
   136   1      2.0409999999999999      14.286999999999999      24.491999999999997
   137   1                       0      12.245999999999999      28.573999999999998
   138   1                       0      14.286999999999999      30.614999999999998
   139   1      2.0409999999999999      12.245999999999999      30.614999999999998
   140   1      2.0409999999999999      14.286999999999999      28.573999999999998
   141   1                       0      12.245999999999999      32.655999999999999
   142   1                       0      14.286999999999999      34.696999999999996
   143   1      2.0409999999999999      12.245999999999999      34.696999999999996
   144   1      2.0409999999999999      14.286999999999999      32.655999999999999
   145   1                       0      16.327999999999999                       0
   146   1                       0                  18.369      2.0409999999999999
   147   1      2.0409999999999999      16.327999999999999      2.0409999999999999
   148   1      2.0409999999999999                  18.369                       0
   149   1                       0      16.327999999999999      4.0819999999999999
   150   1                       0                  18.369      6.1229999999999993
   151   1      2.0409999999999999      16.327999999999999      6.1229999999999993
   152   1      2.0409999999999999                  18.369      4.0819999999999999
   153   1                       0      16.327999999999999      8.1639999999999997
   154   1                       0                  18.369                  10.205
   155   1      2.0409999999999999      16.327999999999999                  10.205
   156   1      2.0409999999999999                  18.369      8.1639999999999997
   157   1                       0      16.327999999999999      12.245999999999999
   158   1                       0                  18.369      14.286999999999999
   159   1      2.0409999999999999      16.327999999999999      14.286999999999999
   160   1      2.0409999999999999                  18.369      12.245999999999999
   161   1                       0      16.327999999999999      16.327999999999999
   162   1                       0                  18.369                  18.369
   163   1      2.0409999999999999      16.327999999999999                  18.369
   164   1      2.0409999999999999                  18.369      16.327999999999999
   165   1                       0      16.327999999999999                   20.41
   166   1                       0                  18.369      22.451000000000001
   167   1      2.0409999999999999      16.327999999999999      22.451000000000001
   168   1      2.0409999999999999                  18.369                   20.41
   169   1                       0      16.327999999999999      24.491999999999997
   170   1                       0                  18.369      26.532999999999998
   171   1      2.0409999999999999      16.327999999999999      26.532999999999998
   172   1      2.0409999999999999                  18.369      24.491999999999997
   173   1                       0      16.327999999999999      28.573999999999998
   174   1                       0                  18.369      30.614999999999998
   175   1      2.0409999999999999      16.327999999999999      30.614999999999998
   176   1      2.0409999999999999                  18.369      28.573999999999998
   177   1                       0      16.327999999999999      32.655999999999999
   178   1                       0                  18.369      34.696999999999996
   179   1      2.0409999999999999      16.327999999999999      34.696999999999996
   180   1      2.0409999999999999                  18.369      32.655999999999999
   181   1                       0                   20.41                       0
   182   1                       0      22.451000000000001      2.0409999999999999
   183   1      2.0409999999999999                   20.41      2.0409999999999999
   184   1      2.0409999999999999      22.451000000000001                       0
   185   1                       0                   20.41      4.0819999999999999
   186   1                       0      22.451000000000001      6.1229999999999993
   187   1      2.0409999999999999                   20.41      6.1229999999999993
   188   1      2.0409999999999999      22.451000000000001      4.0819999999999999
   189   1                       0                   20.41      8.1639999999999997
   190   1                       0      22.451000000000001                  10.205
   191   1      2.0409999999999999                   20.41                  10.205
   192   1      2.0409999999999999      22.451000000000001      8.1639999999999997
   193   1                       0                   20.41      12.245999999999999
   194   1                       0      22.451000000000001      14.286999999999999
   195   1      2.0409999999999999                   20.41      14.286999999999999
   196   1      2.0409999999999999      22.451000000000001      12.245999999999999
   197   1                       0                   20.41      16.327999999999999
   198   1                       0      22.451000000000001                  18.369
   199   1      2.0409999999999999                   20.41                  18.369
   200   1      2.0409999999999999      22.451000000000001      16.327999999999999
   201   1                       0                   20.41                   20.41
   202   1                       0      22.451000000000001      22.451000000000001
   203   1      2.0409999999999999                   20.41      22.451000000000001
   204   1      2.0409999999999999      22.451000000000001                   20.41
   205   1                       0                   20.41      24.491999999999997
   206   1                       0      22.451000000000001      26.532999999999998
   207   1      2.0409999999999999                   20.41      26.532999999999998
   208   1      2.0409999999999999      22.451000000000001      24.491999999999997
   209   1                       0                   20.41      28.573999999999998
   210   1                       0      22.451000000000001      30.614999999999998
   211   1      2.0409999999999999                   20.41      30.614999999999998
   212   1      2.0409999999999999      22.451000000000001      28.573999999999998
   213   1                       0                   20.41      32.655999999999999
   214   1                       0      22.451000000000001      34.696999999999996
   215   1      2.0409999999999999                   20.41      34.696999999999996
   216   1      2.0409999999999999      22.451000000000001      32.655999999999999
   217   1                       0      24.491999999999997                       0
   218   1                       0      26.532999999999998      2.0409999999999999
   219   1      2.0409999999999999      24.491999999999997      2.0409999999999999
   220   1      2.0409999999999999      26.532999999999998                       0
   221   1                       0      24.491999999999997      4.0819999999999999
   222   1                       0      26.532999999999998      6.1229999999999993
   223   1      2.0409999999999999      24.491999999999997      6.1229999999999993
   224   1      2.0409999999999999      26.532999999999998      4.0819999999999999
   225   1                       0      24.491999999999997      8.1639999999999997
   226   1                       0      26.532999999999998                  10.205
   227   1      2.0409999999999999      24.491999999999997                  10.205
   228   1      2.0409999999999999      26.532999999999998      8.1639999999999997
   229   1                       0      24.491999999999997      12.245999999999999
   230   1                       0      26.532999999999998      14.286999999999999
   231   1      2.0409999999999999      24.491999999999997      14.286999999999999
   232   1      2.0409999999999999      26.532999999999998      12.245999999999999
   233   1                       0      24.491999999999997      16.327999999999999
   234   1                       0      26.532999999999998                  18.369
   235   1      2.0409999999999999      24.491999999999997                  18.369
   236   1      2.0409999999999999      26.532999999999998      16.327999999999999
   237   1                       0      24.491999999999997                   20.41
   238   1                       0      26.532999999999998      22.451000000000001
   239   1      2.0409999999999999      24.491999999999997      22.451000000000001
   240   1      2.0409999999999999      26.532999999999998                   20.41
   241   1                       0      24.491999999999997      24.491999999999997
   242   1                       0      26.532999999999998      26.532999999999998
   243   1      2.0409999999999999      24.491999999999997      26.532999999999998
   244   1      2.0409999999999999      26.532999999999998      24.491999999999997
   245   1                       0      24.491999999999997      28.573999999999998
   246   1                       0      26.532999999999998      30.614999999999998
   247   1      2.0409999999999999      24.491999999999997      30.614999999999998
   248   1      2.0409999999999999      26.532999999999998      28.573999999999998
   249   1                       0      24.491999999999997      32.655999999999999
   250   1                       0      26.532999999999998      34.696999999999996
   251   1      2.0409999999999999      24.491999999999997      34.696999999999996
   252   1      2.0409999999999999      26.532999999999998      32.655999999999999
   253   1                       0      28.573999999999998                       0
   254   1                       0      30.614999999999998      2.0409999999999999
   255   1      2.0409999999999999      28.573999999999998      2.0409999999999999
   256   1      2.0409999999999999      30.614999999999998                       0
   257   1                       0      28.573999999999998      4.0819999999999999
   258   1                       0      30.614999999999998      6.1229999999999993
   259   1      2.0409999999999999      28.573999999999998      6.1229999999999993
   260   1      2.0409999999999999      30.614999999999998      4.0819999999999999
   261   1                       0      28.573999999999998      8.1639999999999997
   262   1                       0      30.614999999999998                  10.205
   263   1      2.0409999999999999      28.573999999999998                  10.205
   264   1      2.0409999999999999      30.614999999999998      8.1639999999999997
   265   1                       0      28.573999999999998      12.245999999999999
   266   1                       0      30.614999999999998      14.286999999999999
   267   1      2.0409999999999999      28.573999999999998      14.286999999999999
   268   1      2.0409999999999999      30.614999999999998      12.245999999999999
   269   1                       0      28.573999999999998      16.327999999999999
   270   1                       0      30.614999999999998                  18.369
   271   1      2.0409999999999999      28.573999999999998                  18.369
   272   1      2.0409999999999999      30.614999999999998      16.327999999999999
   273   1                       0      28.573999999999998                   20.41
   274   1                       0      30.614999999999998      22.451000000000001
   275   1      2.0409999999999999      28.573999999999998      22.451000000000001
   276   1      2.0409999999999999      30.614999999999998                   20.41
   277   1                       0      28.573999999999998      24.491999999999997
   278   1                       0      30.614999999999998      26.532999999999998
   279   1      2.0409999999999999      28.573999999999998      26.532999999999998
   280   1      2.0409999999999999      30.614999999999998      24.491999999999997
   281   1                       0      28.573999999999998      28.573999999999998
   282   1                       0      30.614999999999998      30.614999999999998
   283   1      2.0409999999999999      28.573999999999998      30.614999999999998
   284   1      2.0409999999999999      30.614999999999998      28.573999999999998
   285   1                       0      28.573999999999998      32.655999999999999
   286   1                       0      30.614999999999998      34.696999999999996
   287   1      2.0409999999999999      28.573999999999998      34.696999999999996
   288   1      2.0409999999999999      30.614999999999998      32.655999999999999
   289   1                       0      32.655999999999999                       0
   290   1                       0      34.696999999999996      2.0409999999999999
   291   1      2.0409999999999999      32.655999999999999      2.0409999999999999
   292   1      2.0409999999999999      34.696999999999996                       0
   293   1                       0      32.655999999999999      4.0819999999999999
   294   1                       0      34.696999999999996      6.1229999999999993
   295   1      2.0409999999999999      32.655999999999999      6.1229999999999993
   296   1      2.0409999999999999      34.696999999999996      4.0819999999999999
   297   1                       0      32.655999999999999      8.1639999999999997
   298   1                       0      34.696999999999996                  10.205
   299   1      2.0409999999999999      32.655999999999999                  10.205
   300   1      2.0409999999999999      34.696999999999996      8.1639999999999997
   301   1                       0      32.655999999999999      12.245999999999999
   302   1                       0      34.696999999999996      14.286999999999999
   303   1      2.0409999999999999      32.655999999999999      14.286999999999999
   304   1      2.0409999999999999      34.696999999999996      12.245999999999999
   305   1                       0      32.655999999999999      16.327999999999999
   306   1                       0      34.696999999999996                  18.369
   307   1      2.0409999999999999      32.655999999999999                  18.369
   308   1      2.0409999999999999      34.696999999999996      16.327999999999999
   309   1                       0      32.655999999999999                   20.41
   310   1                       0      34.696999999999996      22.451000000000001
   311   1      2.0409999999999999      32.655999999999999      22.451000000000001
   312   1      2.0409999999999999      34.696999999999996                   20.41
   313   1                       0      32.655999999999999      24.491999999999997
   314   1                       0      34.696999999999996      26.532999999999998
   315   1      2.0409999999999999      32.655999999999999      26.532999999999998
   316   1      2.0409999999999999      34.696999999999996      24.491999999999997
   317   1                       0      32.655999999999999      28.573999999999998
   318   1                       0      34.696999999999996      30.614999999999998
   319   1      2.0409999999999999      32.655999999999999      30.614999999999998
   320   1      2.0409999999999999      34.696999999999996      28.573999999999998
   321   1                       0      32.655999999999999      32.655999999999999
   322   1                       0      34.696999999999996      34.696999999999996
   323   1      2.0409999999999999      32.655999999999999      34.696999999999996
   324   1      2.0409999999999999      34.696999999999996      32.655999999999999
   325   1      4.0819999999999999                       0                       0
   326   1      4.0819999999999999      2.0409999999999999      2.0409999999999999
   327   1      6.1229999999999993                       0      2.0409999999999999
   328   1      6.1229999999999993      2.0409999999999999                       0
   329   1      4.0819999999999999                       0      4.0819999999999999
   330   1      4.0819999999999999      2.0409999999999999      6.1229999999999993
   331   1      6.1229999999999993                       0      6.1229999999999993
   332   1      6.1229999999999993      2.0409999999999999      4.0819999999999999
   333   1      4.0819999999999999                       0      8.1639999999999997
   334   1      4.0819999999999999      2.0409999999999999                  10.205
   335   1      6.1229999999999993                       0                  10.205
   336   1      6.1229999999999993      2.0409999999999999      8.1639999999999997
   337   1      4.0819999999999999                       0      12.245999999999999
   338   1      4.0819999999999999      2.0409999999999999      14.286999999999999
   339   1      6.1229999999999993                       0      14.286999999999999
   340   1      6.1229999999999993      2.0409999999999999      12.245999999999999
   341   1      4.0819999999999999                       0      16.327999999999999
   342   1      4.0819999999999999      2.0409999999999999                  18.369
   343   1      6.1229999999999993                       0                  18.369
   344   1      6.1229999999999993      2.0409999999999999      16.327999999999999
   345   1      4.0819999999999999                       0                   20.41
   346   1      4.0819999999999999      2.0409999999999999      22.451000000000001
   347   1      6.1229999999999993                       0      22.451000000000001
   348   1      6.1229999999999993      2.0409999999999999                   20.41
   349   1      4.0819999999999999                       0      24.491999999999997
   350   1      4.0819999999999999      2.0409999999999999      26.532999999999998
   351   1      6.1229999999999993                       0      26.532999999999998
   352   1      6.1229999999999993      2.0409999999999999      24.491999999999997
   353   1      4.0819999999999999                       0      28.573999999999998
   354   1      4.0819999999999999      2.0409999999999999      30.614999999999998
   355   1      6.1229999999999993                       0      30.614999999999998
   356   1      6.1229999999999993      2.0409999999999999      28.573999999999998
   357   1      4.0819999999999999                       0      32.655999999999999
   358   1      4.0819999999999999      2.0409999999999999      34.696999999999996