LAMMPS data file via write_data, version 7 Feb 2024, timestep = 0, units = metal

2 atoms
2 atom types

0 5 xlo xhi
0 5 ylo yhi
0 7 zlo zhi

Masses

1 63.55
2 196.967

Atoms # atomic

1 1 0 0 0 0 0 0
2 2 2.5 2.5 3.5 0 0 0

Velocities

1 0 0 0
2 0 0 0
