

# ========== Energy Minimization ==========
thermo          1
thermo_style    custom step pe lx ly lz vol temp press
minimize 1.0e-10 1.0e-10 10000 100000
Switching to 'neigh_modify every 1 delay 0 check yes' setting during minimization
Generated 0 of 1 mixed pair_coeff terms from geometric mixing rule
WARNING: Energy due to 3 extra global DOFs will be included in minimizer energies
 (../min.cpp:219)
Per MPI rank memory allocation (min/avg/max) = 4.152 | 4.152 | 4.152 Mbytes
   Step         PotEng           Lx             Ly             Lz           Volume          Temp          Press     
         0  -3.4983628      3              3              3              27             0              129589.54    
         1  -3.5047274      3.003          3.003          3.003          27.081081      0              121972.92    
         2  -3.5107229      3.006          3.006          3.006          27.162324      0              114527.93    
         3  -3.5163564      3.009          3.009          3.009          27.24373       0              107251.18    
         4  -3.5216348      3.012          3.012          3.012          27.325298      0              100139.36    
         5  -3.5265651      3.015          3.015          3.015          27.407028      0              93189.186    
         6  -3.5267137      3.0150938      3.0150938      3.0150938      27.409585      0              92974.563    
         7  -3.5267322      3.0151055      3.0151055      3.0151055      27.409905      0              92947.746    
         8  -3.5267415      3.0151113      3.0151113      3.0151113      27.410064      0              92934.339    
         9  -3.5267438      3.0151128      3.0151128      3.0151128      27.410104      0              92930.987    
        10  -3.5267444      3.0151132      3.0151132      3.0151132      27.410114      0              92930.149    
        11  -3.5267447      3.0151133      3.0151133      3.0151133      27.410119      0              92929.73     
        12  -3.5267448      3.0151134      3.0151134      3.0151134      27.410122      0              92929.52     
        13  -3.5267448      3.0151134      3.0151134      3.0151134      27.410122      0              92929.494    
        14  -3.5267448      3.0151134      3.0151134      3.0151134      27.410122      0              92929.494    
Loop time of 0.0476032 on 1 procs for 14 steps with 2 atoms

22.1% CPU use with 1 MPI tasks x no OpenMP threads

Minimization stats:
  Stopping criterion = linesearch alpha is zero
  Energy initial, next-to-last, final = 
     -3.49836284441767  -3.52674482943904  -3.52674482943904
  Force two-norm initial, final = 3.7825441 2.7398855
  Force max component initial, final = 2.1838528 1.5818736
  Final line search alpha, max atom move = 1.2057529e-09 1.9073486e-09
  Iterations, force evaluations = 14 126

MPI task timing breakdown:
Section |  min time  |  avg time  |  max time  |%varavg| %total
---------------------------------------------------------------
Pair    | 0.0092508  | 0.0092508  | 0.0092508  |   0.0 | 19.43
Neigh   | 0          | 0          | 0          |   0.0 |  0.00
Comm    | 0.0049998  | 0.0049998  | 0.0049998  |   0.0 | 10.50
Output  | 0.0094799  | 0.0094799  | 0.0094799  |   0.0 | 19.91
Modify  | 0          | 0          | 0          |   0.0 |  0.00
Other   |            | 0.02387    |            |       | 50.15

Nlocal:              2 ave           2 max           2 min
Histogram: 1 0 0 0 0 0 0 0 0 0
Nghost:            853 ave         853 max         853 min
Histogram: 1 0 0 0 0 0 0 0 0 0
Neighs:            330 ave         330 max         330 min
Histogram: 1 0 0 0 0 0 0 0 0 0

Total # of neighbors = 330
Ave neighs/atom = 165
Neighbor list builds = 0
Dangerous builds = 0



# ========== Output Final Structure ==========
write_data      optimized_structure.data pair ij
System init for write_data ...
Generated 0 of 1 mixed pair_coeff terms from geometric mixing rule
Total wall time: 0:00:00
