

# ========== Energy Minimization ==========
thermo          1
thermo_style    custom step pe lx ly lz vol temp press
minimize 1.0e-10 1.0e-10 10000 100000
Switching to 'neigh_modify every 1 delay 0 check yes' setting during minimization
WARNING: Energy due to 1 extra global DOFs will be included in minimizer energies
 (../min.cpp:219)
Per MPI rank memory allocation (min/avg/max) = 4.332 | 4.332 | 4.332 Mbytes
   Step         PotEng           Lx             Ly             Lz           Volume          Temp          Press     
         0  -7.4461521      3              3              3              27             0              203065.6     
         1  -7.4561524      3.003          3.003          3.003          27.081081      0              192193.41    
         2  -7.4656277      3.006          3.006          3.006          27.162324      0              181572.39    
         3  -7.4745886      3.009          3.009          3.009          27.24373       0              171197.94    
         4  -7.4830454      3.012          3.012          3.012          27.325298      0              161065.45    
         5  -7.4910082      3.015          3.015          3.015          27.407028      0              151170.3     
         6  -7.4984871      3.018          3.018          3.018          27.488922      0              141507.77    
         7  -7.5054919      3.021          3.021          3.021          27.570978      0              132073.26    
         8  -7.5120321      3.024          3.024          3.024          27.653198      0              122862.03    
         9  -7.5181174      3.027          3.027          3.027          27.735581      0              113869.4     
        10  -7.523757       3.03           3.03           3.03           27.818127      0              105090.66    
        11  -7.52896        3.033          3.033          3.033          27.900837      0              96521.141    
        12  -7.5337353      3.036          3.036          3.036          27.983711      0              88155.976    
        13  -7.5380918      3.039          3.039          3.039          28.066748      0              79989.967    
        14  -7.542038       3.042          3.042          3.042          28.14995       0              72029.085    
        15  -7.5455832      3.045          3.045          3.045          28.233316      0              64276.652    
        16  -7.5487366      3.048          3.048          3.048          28.316847      0              56726.223    
        17  -7.5515058      3.051          3.051          3.051          28.400542      0              49315.375    
        18  -7.5538954      3.054          3.054          3.054          28.484401      0              42015.374    
        19  -7.5559097      3.057          3.057          3.057          28.568426      0              34823.062    
        20  -7.5575529      3.06           3.06           3.06           28.652616      0              27732.211    
        21  -7.558828       3.063          3.063          3.063          28.736971      0              20720.014    
        22  -7.5597376      3.066          3.066          3.066          28.821491      0              13778.158    
        23  -7.5602839      3.069          3.069          3.069          28.906178      0              6905.9035    
        24  -7.5604691      3.072          3.072          3.072          28.991029      0              100.538      
        25  -7.5604691      3.0720447      3.0720447      3.0720447      28.992295      0             -0.32337541   
        26  -7.5604691      3.0720446      3.0720446      3.0720446      28.992291      0             -1.7559147e-05
Loop time of 0.0115863 on 1 procs for 26 steps with 2 atoms

0.0% CPU use with 1 MPI tasks x no OpenMP threads

Minimization stats:
  Stopping criterion = energy tolerance
  Energy initial, next-to-last, final = 
     -7.44615212488989  -7.56046910704214  -7.56046910704256
  Force two-norm initial, final = 10.266231 9.3087335e-10
  Force max component initial, final = 10.266231 9.3087335e-10
  Final line search alpha, max atom move = 1 9.3087335e-10
  Iterations, force evaluations = 26 28

MPI task timing breakdown:
Section |  min time  |  avg time  |  max time  |%varavg| %total
---------------------------------------------------------------
Pair    | 0.00028683 | 0.00028683 | 0.00028683 |   0.0 |  2.48
Neigh   | 0          | 0          | 0          |   0.0 |  0.00
Comm    | 7.056e-05  | 7.056e-05  | 7.056e-05  |   0.0 |  0.61
Output  | 0.010821   | 0.010821   | 0.010821   |   0.0 | 93.39
Modify  | 0          | 0          | 0          |   0.0 |  0.00
Other   |            | 0.000408   |            |       |  3.52

Nlocal:              2 ave           2 max           2 min
Histogram: 1 0 0 0 0 0 0 0 0 0
Nghost:            187 ave         187 max         187 min
Histogram: 1 0 0 0 0 0 0 0 0 0
Neighs:             58 ave          58 max          58 min
Histogram: 1 0 0 0 0 0 0 0 0 0

Total # of neighbors = 58
Ave neighs/atom = 29
Neighbor list builds = 0
Dangerous builds = 0


# ========== Output Final Structure ==========
write_data      optimized_structure_EAM.data pair ij
System init for write_data ...
Total wall time: 0:00:00
