

# ========== Energy Minimization ==========
thermo          1
thermo_style    custom step pe lx ly lz vol temp press
minimize 1.0e-10 1.0e-10 1000000 100000
Switching to 'neigh_modify every 1 delay 0 check yes' setting during minimization
Generated 0 of 1 mixed pair_coeff terms from geometric mixing rule
WARNING: Energy due to 3 extra global DOFs will be included in minimizer energies
 (../min.cpp:219)
Per MPI rank memory allocation (min/avg/max) = 4.091 | 4.091 | 4.091 Mbytes
   Step         PotEng           Lx             Ly             Lz           Volume          Temp          Press     
         0  -0.097317978    7              7              5              245            0             -1260.3714    
         1  -0.098223875    6.9953385      6.9953385      4.995          244.42913      0             -1275.058     
         2  -0.098695859    6.9907299      6.9907299      4.99           243.86282      0             -1284.0882    
         3  -0.099170254    6.9861268      6.9861268      4.985          243.29775      0             -1293.1841    
         4  -0.099647098    6.9815289      6.9815289      4.98           242.73389      0             -1302.3466    
         5  -0.10012641     6.976936       6.976936       4.975          242.17124      0             -1311.5763    
         6  -0.10060819     6.9723483      6.9723483      4.97           241.60979      0             -1320.8736    
         7  -0.10109246     6.9677657      6.9677657      4.965          241.04955      0             -1330.2391    
         8  -0.10157924     6.9631882      6.9631882      4.96           240.49051      0             -1339.6733    
         9  -0.10206853     6.9586159      6.9586159      4.955          239.93267      0             -1349.1766    
        10  -0.10256035     6.9540488      6.9540488      4.95           239.37604      0             -1358.7496    
        11  -0.10305471     6.9494869      6.9494869      4.945          238.8206       0             -1368.3928    
        12  -0.10355163     6.9449302      6.9449302      4.94           238.26635      0             -1378.1067    
        13  -0.10405112     6.9403787      6.9403787      4.935          237.71331      0             -1387.8918    
        14  -0.1045532      6.9358324      6.9358324      4.93           237.16145      0             -1397.7487    
        15  -0.10505787     6.9312914      6.9312914      4.925          236.61079      0             -1407.6778    
        16  -0.10556516     6.9267557      6.9267557      4.92           236.06133      0             -1417.6797    
        17  -0.10607507     6.9222253      6.9222253      4.915          235.51305      0             -1427.755     
        18  -0.10658762     6.9177002      6.9177002      4.91           234.96597      0             -1437.9041    
        19  -0.10710283     6.9131804      6.9131804      4.905          234.42007      0             -1448.1277    
        20  -0.1076207      6.9086659      6.9086659      4.9            233.87535      0             -1458.4262    
        21  -0.10814126     6.9041567      6.9041567      4.895          233.33183      0             -1468.8002    
        22  -0.10866452     6.899653       6.899653       4.89           232.78948      0             -1479.2502    
        23  -0.10919049     6.8951546      6.8951546      4.885          232.24832      0             -1489.7769    
        24  -0.10971918     6.8906616      6.8906616      4.88           231.70834      0             -1500.3808    
        25  -0.11025062     6.886174       6.886174       4.875          231.16954      0             -1511.0624    
        26  -0.11078481     6.8816919      6.8816919      4.87           230.63192      0             -1521.8223    
        27  -0.11132177     6.8772152      6.8772152      4.865          230.09547      0             -1532.6611    
        28  -0.11186152     6.872744       6.872744       4.86           229.5602       0             -1543.5794    
        29  -0.11240407     6.8682782      6.8682782      4.855          229.02611      0             -1554.5777    
        30  -0.11294944     6.8638179      6.8638179      4.85           228.49318      0             -1565.6566    
        31  -0.11349764     6.8593632      6.8593632      4.845          227.96143      0             -1576.8168    
        32  -0.11404868     6.8549139      6.8549139      4.84           227.43085      0             -1588.0587    
        33  -0.11460258     6.8504702      6.8504702      4.835          226.90144      0             -1599.3831    
        34  -0.11515937     6.8460321      6.8460321      4.83           226.37319      0             -1610.7904    
        35  -0.11571904     6.8415995      6.8415995      4.825          225.84611      0             -1622.2814    
        36  -0.11628162     6.8371726      6.8371726      4.82           225.3202       0             -1633.8566    
        37  -0.11684713     6.8327512      6.8327512      4.815          224.79544      0             -1645.5166    
        38  -0.11741558     6.8283354      6.8283354      4.81           224.27185      0             -1657.2621    
        39  -0.11798698     6.8239253      6.8239253      4.805          223.74942      0             -1669.0936    
        40  -0.11856136     6.8195208      6.8195208      4.8            223.22815      0             -1681.0119    
        41  -0.11913872     6.815122       6.815122       4.795          222.70803      0             -1693.0175    
        42  -0.11971909     6.8107289      6.8107289      4.79           222.18907      0             -1705.1111    
        43  -0.12030247     6.8063414      6.8063414      4.785          221.67127      0             -1717.2932    
        44  -0.1208889      6.8019597      6.8019597      4.78           221.15462      0             -1729.5646    
        45  -0.12147837     6.7975838      6.7975838      4.775          220.63912      0             -1741.9259    
        46  -0.12207092     6.7932135      6.7932135      4.77           220.12477      0             -1754.3778    
        47  -0.12266655     6.788849       6.788849       4.765          219.61157      0             -1766.9208    
        48  -0.12326528     6.7844903      6.7844903      4.76           219.09951      0             -1779.5558    
        49  -0.12386714     6.7801374      6.7801374      4.755          218.5886       0             -1792.2833    
        50  -0.12447213     6.7757903      6.7757903      4.75           218.07884      0             -1805.104     
        51  -0.12508027     6.7714491      6.7714491      4.745          217.57022      0             -1818.0185    
        52  -0.12569158     6.7671136      6.7671136      4.74           217.06274      0             -1831.0277    
        53  -0.12630609     6.7627841      6.7627841      4.735          216.5564       0             -1844.1321    
        54  -0.12692379     6.7584604      6.7584604      4.73           216.0512       0             -1857.3323    
        55  -0.12754472     6.7541426      6.7541426      4.725          215.54714      0             -1870.6293    
        56  -0.12816889     6.7498307      6.7498307      4.72           215.04421      0             -1884.0236    
        57  -0.12879632     6.7455247      6.7455247      4.715          214.54242      0             -1897.5159    
        58  -0.12942702     6.7412246      6.7412246      4.71           214.04176      0             -1911.107     
        59  -0.13006101     6.7369305      6.7369305      4.705          213.54223      0             -1924.7975    
        60  -0.13069832     6.7326424      6.7326424      4.7            213.04383      0             -1938.5882    
        61  -0.13133895     6.7283603      6.7283603      4.695          212.54656      0             -1952.4797    
        62  -0.13198294     6.7240841      6.7240841      4.69           212.05041      0             -1966.473     
        63  -0.13263028     6.719814       6.719814       4.685          211.55539      0             -1980.5685    
        64  -0.13328101     6.7155499      6.7155499      4.68           211.0615       0             -1994.7671    
        65  -0.13393514     6.7112919      6.7112919      4.675          210.56873      0             -2009.0696    
        66  -0.1345927      6.7070399      6.7070399      4.67           210.07707      0             -2023.4767    
        67  -0.13525369     6.702794       6.702794       4.665          209.58654      0             -2037.9891    
        68  -0.13591814     6.6985542      6.6985542      4.66           209.09713      0             -2052.6076    
        69  -0.13658607     6.6943205      6.6943205      4.655          208.60883      0             -2067.333     
        70  -0.13725749     6.6900929      6.6900929      4.65           208.12164      0             -2082.166     
        71  -0.13793243     6.6858714      6.6858714      4.645          207.63557      0             -2097.1074    
        72  -0.1386109      6.6816562      6.6816562      4.64           207.15062      0             -2112.1579    
        73  -0.13929293     6.6774471      6.6774471      4.635          206.66677      0             -2127.3184    
        74  -0.13997853     6.6732442      6.6732442      4.63           206.18403      0             -2142.5897    
        75  -0.14066772     6.6690475      6.6690475      4.625          205.7024       0             -2157.9725    
        76  -0.14136052     6.664857       6.664857       4.62           205.22187      0             -2173.4676    
        77  -0.14205696     6.6606727      6.6606727      4.615          204.74245      0             -2189.0759    
        78  -0.14275705     6.6564947      6.6564947      4.61           204.26413      0             -2204.7981    
        79  -0.14346081     6.6523229      6.6523229      4.605          203.78691      0             -2220.6351    
        80  -0.14416826     6.6481575      6.6481575      4.6            203.31079      0             -2236.5877    
        81  -0.14487942     6.6439983      6.6439983      4.595          202.83577      0             -2252.6566    
        82  -0.14559431     6.6398455      6.6398455      4.59           202.36184      0             -2268.8429    
        83  -0.14631296     6.6356989      6.6356989      4.585          201.88901      0             -2285.1472    
        84  -0.14703539     6.6315587      6.6315587      4.58           201.41728      0             -2301.5704    
        85  -0.1477616      6.6274249      6.6274249      4.575          200.94663      0             -2318.1134    
        86  -0.14849164     6.6232974      6.6232974      4.57           200.47708      0             -2334.777     
        87  -0.1492255      6.6191764      6.6191764      4.565          200.00861      0             -2351.5621    
        88  -0.14996323     6.6150617      6.6150617      4.56           199.54123      0             -2368.4695    
        89  -0.15070484     6.6109535      6.6109535      4.555          199.07493      0             -2385.5002    
        90  -0.15145034     6.6068517      6.6068517      4.55           198.60972      0             -2402.6548    
        91  -0.15219977     6.6027563      6.6027563      4.545          198.1456       0             -2419.9345    
        92  -0.15295314     6.5986674      6.5986674      4.54           197.68255      0             -2437.3401    
        93  -0.15371047     6.594585       6.594585       4.535          197.22058      0             -2454.8724    
        94  -0.15447179     6.590509       6.590509       4.53           196.75969      0             -2472.5323    
        95  -0.15523712     6.5864396      6.5864396      4.525          196.29987      0             -2490.3208    
        96  -0.15600648     6.5823767      6.5823767      4.52           195.84113      0             -2508.2387    
        97  -0.1567799      6.5783203      6.5783203      4.515          195.38346      0             -2526.287     
        98  -0.15755739     6.5742705      6.5742705      4.51           194.92686      0             -2544.4666    
        99  -0.15833898     6.5702273      6.5702273      4.505          194.47133      0             -2562.7783    
       100  -0.15912469     6.5661906      6.5661906      4.5            194.01687      0             -2581.2232    
       101  -0.15991454     6.5621605      6.5621605      4.495          193.56347      0             -2599.8023    
       102  -0.16070856     6.5581371      6.5581371      4.49           193.11114      0             -2618.5164    
       103  -0.16150677     6.5541202      6.5541202      4.485          192.65987      0             -2637.3664    
       104  -0.1623092      6.55011        6.55011        4.48           192.20966      0             -2656.3534    
       105  -0.16311586     6.5461064      6.5461064      4.475          191.76051      0             -2675.4783    
       106  -0.16392678     6.5421096      6.5421096      4.47           191.31241      0             -2694.742     
       107  -0.16474199     6.5381194      6.5381194      4.465          190.86538      0             -2714.1456    
       108  -0.1655615      6.5341359      6.5341359      4.46           190.4194       0             -2733.69      
       109  -0.16638534     6.5301591      6.5301591      4.455          189.97447      0             -2753.3762    
       110  -0.16721354     6.526189       6.526189       4.45           189.53059      0             -2773.2052    
       111  -0.16804612     6.5222257      6.5222257      4.445          189.08776      0             -2793.178     
       112  -0.16888311     6.5182691      6.5182691      4.44           188.64597      0             -2813.2957    
       113  -0.16972453     6.5143192      6.5143192      4.435          188.20523      0             -2833.5591    
       114  -0.1705704      6.5103762      6.5103762      4.43           187.76554      0             -2853.9694    
       115  -0.17142074     6.5064399      6.5064399      4.425          187.32689      0             -2874.5275    
       116  -0.1722756      6.5025105      6.5025105      4.42           186.88928      0             -2895.2345    
       117  -0.17313497     6.4985879      6.4985879      4.415          186.45271      0             -2916.0914    
       118  -0.17399891     6.4946721      6.4946721      4.41           186.01717      0             -2937.0993    
       119  -0.17486743     6.4907631      6.4907631      4.405          185.58268      0             -2958.2592    
       120  -0.17574055     6.486861       6.486861       4.4            185.14921      0             -2979.5721    
       121  -0.1766183      6.4829658      6.4829658      4.395          184.71677      0             -3001.0392    
       122  -0.17750071     6.4790774      6.4790774      4.39           184.28537      0             -3022.6615    
       123  -0.17838781     6.475196       6.475196       4.385          183.85499      0             -3044.44      
       124  -0.17927961     6.4713214      6.4713214      4.38           183.42565      0             -3066.3759    
       125  -0.18017615     6.4674538      6.4674538      4.375          182.99732      0             -3088.4702    
       126  -0.18107746     6.4635932      6.4635932      4.37           182.57002      0             -3110.7239    
       127  -0.18198355     6.4597394      6.4597394      4.365          182.14374      0             -3133.1383    
       128  -0.18289446     6.4558927      6.4558927      4.36           181.71848      0             -3155.7145    
       129  -0.18381022     6.4520529      6.4520529      4.355          181.29423      0             -3178.4535    
       130  -0.18473085     6.44822        6.44822        4.35           180.87101      0             -3201.3564    
       131  -0.18565638     6.4443942      6.4443942      4.345          180.44879      0             -3224.4244    
       132  -0.18658683     6.4405754      6.4405754      4.34           180.02759      0             -3247.6586    
       133  -0.18752224     6.4367636      6.4367636      4.335          179.6074       0             -3271.0602    
       134  -0.18846263     6.4329588      6.4329588      4.33           179.18821      0             -3294.6302    
       135  -0.18940803     6.4291612      6.4291612      4.325          178.77004      0             -3318.3698    
       136  -0.19035847     6.4253705      6.4253705      4.32           178.35287      0             -3342.2802    
       137  -0.19131398     6.4215869      6.4215869      4.315          177.9367       0             -3366.3626    
       138  -0.19227459     6.4178104      6.4178104      4.31           177.52153      0             -3390.6182    
       139  -0.19324032     6.4140409      6.4140409      4.305          177.10736      0             -3415.048     
       140  -0.19421121     6.4102786      6.4102786      4.3            176.69419      0             -3439.6533    
       141  -0.19518728     6.4065234      6.4065234      4.295          176.28201      0             -3464.4352    
       142  -0.19616856     6.4027753      6.4027753      4.29           175.87083      0             -3489.395     
       143  -0.19715509     6.3990343      6.3990343      4.285          175.46064      0             -3514.5339    
       144  -0.19814688     6.3953005      6.3953005      4.28           175.05144      0             -3539.8529    
       145  -0.20088136     6.3915739      6.3915739      4.275          174.64323      0             -3597.2219    
       146  -0.20189471     6.3878168      6.3878168      4.27           174.23395      0             -3623.2212    
       147  -0.20291353     6.3840664      6.3840664      4.265          173.82564      0             -3649.4086    
       148  -0.20393781     6.3803232      6.3803232      4.26           173.41831      0             -3675.7843    
       149  -0.20496758     6.3765871      6.3765871      4.255          173.01197      0             -3702.3495    
       150  -0.20600288     6.3728581      6.3728581      4.25           172.60661      0             -3729.1053    
       151  -0.20704373     6.3691363      6.3691363      4.245          172.20223      0             -3756.0532    
       152  -0.20809017     6.3654217      6.3654217      4.24           171.79884      0             -3783.1944    
       153  -0.20914222     6.3617143      6.3617143      4.235          171.39642      0             -3810.53      
       154  -0.21019993     6.358014       6.358014       4.23           170.99497      0             -3838.0616    
       155  -0.21126332     6.354321       6.354321       4.225          170.59449      0             -3865.7903    
       156  -0.21233242     6.3506351      6.3506351      4.22           170.19499      0             -3893.7176    
       157  -0.21340727     6.3469565      6.3469565      4.215          169.79646      0             -3921.8447    
       158  -0.2144879      6.3432851      6.3432851      4.21           169.39889      0             -3950.1729    
       159  -0.21557435     6.3396209      6.3396209      4.205          169.00229      0             -3978.7035    
       160  -0.21666665     6.335964       6.335964       4.2            168.60665      0             -4007.4379    
       161  -0.21776482     6.3323143      6.3323143      4.195          168.21197      0             -4036.3775    
       162  -0.21886891     6.328672       6.328672       4.19           167.81825      0             -4065.5234    
       163  -0.21997895     6.3250368      6.3250368      4.185          167.42549      0             -4094.8772    
       164  -0.22109497     6.3214089      6.3214089      4.18           167.03368      0             -4124.4402    
       165  -0.22221701     6.3177883      6.3177883      4.175          166.64283      0             -4154.2138    
       166  -0.2233451      6.314175       6.314175       4.17           166.25292      0             -4184.1992    
       167  -0.22447927     6.310569       6.310569       4.165          165.86397      0             -4214.398     
       168  -0.22561957     6.3069703      6.3069703      4.16           165.47596      0             -4244.8114    
       169  -0.22676603     6.3033789      6.3033789      4.155          165.08889      0             -4275.4409    
       170  -0.22791868     6.2997948      6.2997948      4.15           164.70277      0             -4306.2878    
       171  -0.22907755     6.2962181      6.2962181      4.145          164.31759      0             -4337.3534    
       172  -0.23024269     6.2926487      6.2926487      4.14           163.93335      0             -4368.6394    
       173  -0.23141413     6.2890866      6.2890866      4.135          163.55004      0             -4400.1471    
       174  -0.23259191     6.2855318      6.2855318      4.13           163.16767      0             -4431.8778    
       175  -0.23377606     6.2819844      6.2819844      4.125          162.78623      0             -4463.8331    
       176  -0.23496662     6.2784443      6.2784443      4.12           162.40572      0             -4496.0142    
       177  -0.23616363     6.2749116      6.2749116      4.115          162.02613      0             -4528.4227    
       178  -0.23736712     6.2713863      6.2713863      4.11           161.64747      0             -4561.0599    
       179  -0.23857714     6.2678683      6.2678683      4.105          161.26974      0             -4593.9274    
       180  -0.2397937      6.2643577      6.2643577      4.1            160.89293      0             -4627.0263    
       181  -0.24101687     6.2608545      6.2608545      4.095          160.51703      0             -4660.3586    
       182  -0.24224668     6.2573586      6.2573586      4.09           160.14206      0             -4693.9253    
       183  -0.24348316     6.2538701      6.2538701      4.085          159.76799      0             -4727.7281    
       184  -0.24472636     6.250389       6.250389       4.08           159.39484      0             -4761.7684    
       185  -0.2459763      6.2469153      6.2469153      4.075          159.0226       0             -4796.0476    
       186  -0.24723304     6.243449       6.243449       4.07           158.65127      0             -4830.5672    
       187  -0.2484966      6.2399901      6.2399901      4.065          158.28084      0             -4865.3287    
       188  -0.24976704     6.2365386      6.2365386      4.06           157.91132      0             -4900.3335    
       189  -0.25104437     6.2330945      6.2330945      4.055          157.5427       0             -4935.583     
       190  -0.25232867     6.2296578      6.2296578      4.05           157.17497      0             -4971.0789    
       191  -0.25361995     6.2262284      6.2262284      4.045          156.80815      0             -5006.8227    
       192  -0.25491826     6.2228065      6.2228065      4.04           156.44222      0             -5042.8158    
       193  -0.25622365     6.219392       6.219392       4.035          156.07718      0             -5079.0596    
       194  -0.25753614     6.2159849      6.2159849      4.03           155.71303      0             -5115.5557    
       195  -0.25885579     6.2125851      6.2125851      4.025          155.34976      0             -5152.3056    
       196  -0.26018263     6.2091928      6.2091928      4.02           154.98738      0             -5189.3107    
       197  -0.26151671     6.2058079      6.2058079      4.015          154.62589      0             -5226.5726    
       198  -0.26285806     6.2024305      6.2024305      4.01           154.26528      0             -5264.0926    
       199  -0.26420674     6.1990604      6.1990604      4.005          153.90554      0             -5301.8725    
       200  -0.26875552     6.1956977      6.1956977      4              153.54668      0             -5406.5275    
       201  -0.27013955     6.1922689      6.1922689      3.995          153.18506      0             -5445.5407    
       202  -0.27153125     6.1888465      6.1888465      3.99           152.82427      0             -5484.829     
       203  -0.27293056     6.1854316      6.1854316      3.985          152.46436      0             -5524.3896    
       204  -0.27433751     6.1820241      6.1820241      3.98           152.10534      0             -5564.224     
       205  -0.27575215     6.178624       6.178624       3.975          151.74719      0             -5604.334     
       206  -0.27717452     6.1752313      6.1752313      3.97           151.38992      0             -5644.7208    
       207  -0.27860466     6.1718461      6.1718461      3.965          151.03353      0             -5685.386     
       208  -0.28004262     6.1684683      6.1684683      3.96           150.678        0             -5726.3315    
       209  -0.28148845     6.1650978      6.1650978      3.955          150.32335      0             -5767.5587    
       210  -0.28294219     6.1617348      6.1617348      3.95           149.96956      0             -5809.069     
       211  -0.28440388     6.1583792      6.1583792      3.945          149.61663      0             -5850.8641    
       212  -0.28761102     6.155031       6.155031       3.94           149.26456      0             -5930.2336    
       213  -0.28909758     6.1517015      6.1517015      3.935          148.9139       0             -5972.8596    
       214  -0.29059227     6.1483795      6.1483795      3.93           148.5641       0             -6015.7761    
       215  -0.29209515     6.1450649      6.1450649      3.925          148.21515      0             -6058.9856    
       216  -0.29360627     6.1417577      6.1417577      3.92           147.86705      0             -6102.4894    
       217  -0.29512568     6.1384577      6.1384577      3.915          147.5198       0             -6146.2896    
       218  -0.29665344     6.135165       6.135165       3.91           147.17338      0             -6190.3875    
       219  -0.29818958     6.1318797      6.1318797      3.905          146.8278       0             -6234.7846    
       220  -0.29973415     6.1286017      6.1286017      3.9            146.48306      0             -6279.4825    
       221  -0.30128721     6.1253309      6.1253309      3.895          146.13915      0             -6324.4827    
       222  -0.30284879     6.1220675      6.1220675      3.89           145.79607      0             -6369.7867    
       223  -0.30441896     6.1188113      6.1188113      3.885          145.45383      0             -6415.3959    
       224  -0.30599775     6.1155624      6.1155624      3.88           145.1124       0             -6461.3121    
       225  -0.30758521     6.1123208      6.1123208      3.875          144.77181      0             -6507.5363    
       226  -0.3091814      6.1090864      6.1090864      3.87           144.43203      0             -6554.0705    
       227  -0.31078636     6.1058593      6.1058593      3.865          144.09307      0             -6600.9161    
       228  -0.31240015     6.1026394      6.1026394      3.86           143.75492      0             -6648.0744    
       229  -0.31402281     6.0994267      6.0994267      3.855          143.41759      0             -6695.547     
       230  -0.31565439     6.0962212      6.0962212      3.85           143.08106      0             -6743.3352    
       231  -0.31729495     6.0930229      6.0930229      3.845          142.74535      0             -6791.4405    
       232  -0.31894452     6.0898318      6.0898318      3.84           142.41044      0             -6839.8644    
       233  -0.32060317     6.0866478      6.0866478      3.835          142.07633      0             -6888.6082    
       234  -0.32227094     6.0834711      6.0834711      3.83           141.74302      0             -6937.673     
       235  -0.32394789     6.0803014      6.0803014      3.825          141.4105       0             -6987.0609    
       236  -0.32563406     6.0771389      6.0771389      3.82           141.07878      0             -7036.7728    
       237  -0.32732951     6.0739834      6.0739834      3.815          140.74784      0             -7086.8101    
       238  -0.32903428     6.0708351      6.0708351      3.81           140.4177       0             -7137.1742    
       239  -0.33074843     6.0676938      6.0676938      3.805          140.08834      0             -7187.8664    
       240  -0.33247202     6.0645596      6.0645596      3.8            139.75976      0             -7238.8879    
       241  -0.33420508     6.0614325      6.0614325      3.795          139.43196      0             -7290.24      
       242  -0.33594767     6.0583123      6.0583123      3.79           139.10493      0             -7341.924     
       243  -0.33769985     6.0551993      6.0551993      3.785          138.77868      0             -7393.9408    
       244  -0.33946166     6.0520931      6.0520931      3.78           138.4532       0             -7446.2922    
       245  -0.34123317     6.0489939      6.0489939      3.775          138.12849      0             -7498.9791    
       246  -0.34301441     6.0459017      6.0459017      3.77           137.80454      0             -7552.0025    
       247  -0.34480545     6.0428164      6.0428164      3.765          137.48135      0             -7605.3638    
       248  -0.34660633     6.039738       6.039738       3.76           137.15892      0             -7659.0638    
       249  -0.34841711     6.0366665      6.0366665      3.755          136.83724      0             -7713.1038    
       250  -0.35023784     6.0336019      6.0336019      3.75           136.51632      0             -7767.4847    
       251  -0.35206857     6.030544       6.030544       3.745          136.19614      0             -7822.2076    
       252  -0.35390934     6.0274931      6.0274931      3.74           135.87672      0             -7877.2731    
       253  -0.35576024     6.0244489      6.0244489      3.735          135.55803      0             -7932.6828    
       254  -0.35762129     6.0214114      6.0214114      3.73           135.24008      0             -7988.4372    
       255  -0.35949255     6.0183807      6.0183807      3.725          134.92288      0             -8044.5373    
       256  -0.36137408     6.0153567      6.0153567      3.72           134.6064       0             -8100.9837    
       257  -0.36326592     6.0123394      6.0123394      3.715          134.29065      0             -8157.7774    
       258  -0.36516814     6.0093287      6.0093287      3.71           133.97564      0             -8214.9191    
       259  -0.36708078     6.0063247      6.0063247      3.705          133.66134      0             -8272.4094    
       260  -0.36900389     6.0033272      6.0033272      3.7            133.34777      0             -8330.2491    
       261  -0.37093752     6.0003364      6.0003364      3.695          133.03492      0             -8388.4384    
       262  -0.37288174     5.997352       5.997352       3.69           132.72277      0             -8446.9784    
       263  -0.37483659     5.9943742      5.9943742      3.685          132.41134      0             -8505.8694    
       264  -0.37680212     5.9914028      5.9914028      3.68           132.10062      0             -8565.1118    
       265  -0.37877839     5.9884379      5.9884379      3.675          131.7906       0             -8624.706     
       266  -0.38076545     5.9854794      5.9854794      3.67           131.48129      0             -8684.6523    
       267  -0.38276335     5.9825273      5.9825273      3.665          131.17267      0             -8744.9511    
       268  -0.38477214     5.9795814      5.9795814      3.66           130.86474      0             -8805.6025    
       269  -0.38679187     5.9766419      5.9766419      3.655          130.55751      0             -8866.6068    
       270  -0.38882259     5.9737087      5.9737087      3.65           130.25096      0             -8927.9636    
       271  -0.39086435     5.9707817      5.9707817      3.645          129.9451       0             -8989.6736    
       272  -0.39291722     5.9678608      5.9678608      3.64           129.63992      0             -9051.7364    
       273  -0.39498123     5.9649461      5.9649461      3.635          129.33542      0             -9114.1519    
       274  -0.39705643     5.9620375      5.9620375      3.63           129.03158      0             -9176.92      
       275  -0.4007432      5.9591349      5.9591349      3.625          128.72842      0             -9279.8666    
       276  -0.40284985     5.9562538      5.9562538      3.62           128.42659      0             -9343.6093    
       277  -0.40496788     5.9533789      5.9533789      3.615          128.12543      0             -9407.7041    
       278  -0.40709738     5.9505099      5.9505099      3.61           127.82493      0             -9472.1521    
       279  -0.40923838     5.9476469      5.9476469      3.605          127.52508      0             -9536.9525    
       280  -0.41139094     5.9447896      5.9447896      3.6            127.22589      0             -9602.105     
       281  -0.41355512     5.9419382      5.9419382      3.595          126.92733      0             -9667.6086    
       282  -0.41573095     5.9390926      5.9390926      3.59           126.62943      0             -9733.4625    
       283  -0.41791849     5.9362526      5.9362526      3.585          126.33216      0             -9799.6657    
       284  -0.42011778     5.9334183      5.9334183      3.58           126.03552      0             -9866.2169    
       285  -0.42232886     5.9305896      5.9305896      3.575          125.73952      0             -9933.1151    
       286  -0.42455179     5.9277664      5.9277664      3.57           125.44414      0             -10000.359    
       287  -0.42678661     5.9249488      5.9249488      3.565          125.14939      0             -10067.947    
       288  -0.42903335     5.9221366      5.9221366      3.56           124.85526      0             -10135.877    
       289  -0.43129207     5.9193297      5.9193297      3.555          124.56174      0             -10204.149    
       290  -0.43356281     5.9165282      5.9165282      3.55           124.26884      0             -10272.759    
       291  -0.43584561     5.9137319      5.9137319      3.545          123.97654      0             -10341.707    
       292  -0.43814051     5.9109409      5.9109409      3.54           123.68485      0             -10410.99     
       293  -0.44044755     5.908155       5.908155       3.535          123.39375      0             -10480.605    
       294  -0.44276678     5.9053741      5.9053741      3.53           123.10325      0             -10550.551    
       295  -0.44509822     5.9025983      5.9025983      3.525          122.81335      0             -10620.825    
       296  -0.44744192     5.8998274      5.8998274      3.52           122.52403      0             -10691.424    
       297  -0.44979792     5.8970614      5.8970614      3.515          122.23529      0             -10762.345    
       298  -0.45216624     5.8943002      5.8943002      3.51           121.94714      0             -10833.586    
       299  -0.45454694     5.8915437      5.8915437      3.505          121.65955      0             -10905.143    
       300  -0.45694003     5.8887918      5.8887918      3.5            121.37254      0             -10977.012    
       301  -0.45934555     5.8860446      5.8860446      3.495          121.0861       0             -11049.191    
       302  -0.46176354     5.8833018      5.8833018      3.49           120.80021      0             -11121.675    
       303  -0.46419401     5.8805635      5.8805635      3.485          120.51488      0             -11194.461    
       304  -0.46663701     5.8778296      5.8778296      3.48           120.2301       0             -11267.543    
       305  -0.46909255     5.8750999      5.8750999      3.475          119.94587      0             -11340.919    
       306  -0.47156067     5.8723744      5.8723744      3.47           119.66219      0             -11414.583    
       307  -0.47404138     5.869653       5.869653       3.465          119.37904      0             -11488.531    
       308  -0.47653472     5.8669355      5.8669355      3.46           119.09643      0             -11562.757    
       309  -0.4790407      5.864222       5.864222       3.455          118.81434      0             -11637.256    
       310  -0.48155934     5.8615124      5.8615124      3.45           118.53278      0             -11712.023    
       311  -0.48409066     5.8588064      5.8588064      3.445          118.25174      0             -11787.052    
       312  -0.48663467     5.8561041      5.8561041      3.44           117.97121      0             -11862.337    
       313  -0.48919139     5.8534053      5.8534053      3.435          117.69119      0             -11937.871    
       314  -0.49176083     5.85071        5.85071        3.43           117.41167      0             -12013.649    
       315  -0.494343       5.848018       5.848018       3.425          117.13265      0             -12089.662    
       316  -0.49693792     5.8453292      5.8453292      3.42           116.85413      0             -12165.905    
       317  -0.49954558     5.8426435      5.8426435      3.415          116.57609      0             -12242.369    
       318  -0.50216599     5.8399608      5.8399608      3.41           116.29854      0             -12319.047    
       319  -0.50479915     5.837281       5.837281       3.405          116.02146      0             -12395.93     
       320  -0.50744506     5.834604       5.834604       3.4            115.74485      0             -12473.011    
       321  -0.51010371     5.8319296      5.8319296      3.395          115.46871      0             -12550.28     
       322  -0.51277511     5.8292577      5.8292577      3.39           115.19303      0             -12627.729    
       323  -0.51545924     5.8265883      5.8265883      3.385          114.91781      0             -12705.347    
       324  -0.51815609     5.8239211      5.8239211      3.38           114.64303      0             -12783.125    
       325  -0.52086566     5.821256       5.821256       3.375          114.3687       0             -12861.053    
       326  -0.52358791     5.8185929      5.8185929      3.37           114.0948       0             -12939.12     
       327  -0.52632284     5.8159317      5.8159317      3.365          113.82133      0             -13017.316    
       328  -0.52907042     5.8132722      5.8132722      3.36           113.54829      0             -13095.627    
       329  -0.53183062     5.8106142      5.8106142      3.355          113.27566      0             -13174.044    
       330  -0.53460341     5.8079576      5.8079576      3.35           113.00345      0             -13252.552    
       331  -0.53738877     5.8053023      5.8053023      3.345          112.73164      0             -13331.14     
       332  -0.54018666     5.8026481      5.8026481      3.34           112.46022      0             -13409.794    
       333  -0.54299704     5.7999948      5.7999948      3.335          112.1892       0             -13488.501    
       334  -0.54625656     5.7973423      5.7973423      3.33           111.91856      0             -13579.745    
       335  -0.54909461     5.794695       5.794695       3.325          111.64848      0             -13658.604    
       336  -0.55194503     5.7920482      5.7920482      3.32           111.37877      0             -13737.471    
       337  -0.55480776     5.7894017      5.7894017      3.315          111.10943      0             -13816.331    
       338  -0.55768276     5.7867552      5.7867552      3.31           110.84043      0             -13895.167    
       339  -0.56056996     5.7841086      5.7841086      3.305          110.57179      0             -13973.963    
       340  -0.56346928     5.7814616      5.7814616      3.3            110.30349      0             -14052.7      
       341  -0.56638067     5.7788141      5.7788141      3.295          110.03551      0             -14131.36     
       342  -0.56930405     5.7761659      5.7761659      3.29           109.76786      0             -14209.926    
       343  -0.57223933     5.7735166      5.7735166      3.285          109.50053      0             -14288.376    
       344  -0.57518643     5.7708662      5.7708662      3.28           109.2335       0             -14366.691    
       345  -0.57814526     5.7682143      5.7682143      3.275          108.96677      0             -14444.85     
       346  -0.58111573     5.7655608      5.7655608      3.27           108.70033      0             -14522.832    
       347  -0.58409774     5.7629053      5.7629053      3.265          108.43417      0             -14600.613    
       348  -0.58709118     5.7602476      5.7602476      3.26           108.16827      0             -14678.172    
       349  -0.59009594     5.7575875      5.7575875      3.255          107.90264      0             -14755.483    
       350  -0.59311191     5.7549246      5.7549246      3.25           107.63726      0             -14832.523    
       351  -0.59613898     5.7522587      5.7522587      3.245          107.37212      0             -14909.266    
       352  -0.599177       5.7495895      5.7495895      3.24           107.10721      0             -14985.686    
       353  -0.60222585     5.7469167      5.7469167      3.235          106.84251      0             -15061.755    
       354  -0.60528539     5.74424        5.74424        3.23           106.57803      0             -15137.446    
       355  -0.60835547     5.741559       5.741559       3.225          106.31374      0             -15212.729    
       356  -0.61143596     5.7388734      5.7388734      3.22           106.04963      0             -15287.575    
       357  -0.61452668     5.7361829      5.7361829      3.215          105.7857       0             -15361.954    
       358  -0.61762748     5.733487       5.733487       3.21           105.52192      0             -15435.832    
       359  -0.62073819     5.7307855      5.7307855      3.205          105.2583       0             -15509.177    
       360  -0.62385864     5.7280779      5.7280779      3.2            104.9948       0             -15581.957    
       361  -0.62698865     5.7253638      5.7253638      3.195          104.73143      0             -15654.134    
       362  -0.63012801     5.7226428      5.7226428      3.19           104.46816      0             -15725.674    
       363  -0.63327655     5.7199145      5.7199145      3.185          104.20499      0             -15796.54     
       364  -0.63643406     5.7171783      5.7171783      3.18           103.94189      0             -15866.693    
       365  -0.63960033     5.7144339      5.7144339      3.175          103.67885      0             -15936.094    
       366  -0.64277515     5.7116807      5.7116807      3.17           103.41585      0             -16004.702    
       367  -0.64595831     5.7089183      5.7089183      3.165          103.15288      0             -16072.476    
       368  -0.64914956     5.706146       5.706146       3.16           102.88992      0             -16139.373    
       369  -0.65234869     5.7033632      5.7033632      3.155          102.62695      0             -16205.347    
       370  -0.65555544     5.7005696      5.7005696      3.15           102.36395      0             -16270.354    
       371  -0.65876958     5.6977643      5.6977643      3.145          102.10091      0             -16334.347    
       372  -0.66199085     5.6949468      5.6949468      3.14           101.8378       0             -16397.277    
       373  -0.66521899     5.6921164      5.6921164      3.135          101.57459      0             -16459.094    
       374  -0.66845374     5.6892724      5.6892724      3.13           101.31128      0             -16519.749    
       375  -0.67169484     5.686414       5.686414       3.125          101.04783      0             -16579.187    
       376  -0.67494201     5.6835405      5.6835405      3.12           100.78421      0             -16637.355    
       377  -0.67819498     5.6806511      5.6806511      3.115          100.52042      0             -16694.197    
       378  -0.68145345     5.6777449      5.6777449      3.11           100.25641      0             -16749.658    
       379  -0.68471715     5.6748211      5.6748211      3.105          99.992159      0             -16803.677    
       380  -0.68798579     5.6718786      5.6718786      3.1            99.72764       0             -16856.196    
       381  -0.69125908     5.6689165      5.6689165      3.095          99.46282       0             -16907.153    
       382  -0.69453673     5.6659337      5.6659337      3.09           99.197667      0             -16956.484    
       383  -0.69781844     5.6629292      5.6629292      3.085          98.932146      0             -17004.125    
       384  -0.70110393     5.6599017      5.6599017      3.08           98.666221      0             -17050.01     
       385  -0.70439292     5.6568501      5.6568501      3.075          98.399855      0             -17094.072    
       386  -0.7076851      5.653773       5.653773       3.07           98.133006      0             -17136.24     
       387  -0.71098022     5.650669       5.650669       3.065          97.865633      0             -17176.445    
       388  -0.71427799     5.6475366      5.6475366      3.06           97.59769       0             -17214.614    
       389  -0.71757816     5.6443744      5.6443744      3.055          97.329129      0             -17250.674    
       390  -0.72088048     5.6411805      5.6411805      3.05           97.059899      0             -17284.549    
       391  -0.72418471     5.6379533      5.6379533      3.045          96.789947      0             -17316.163    
       392  -0.72749065     5.6346909      5.6346909      3.04           96.519213      0             -17345.439    
       393  -0.73079809     5.6313911      5.6313911      3.035          96.247638      0             -17372.298    
       394  -0.73731136     5.6280519      5.6280519      3.03           95.975155      0             -17503.625    
       395  -0.74238607     5.6246516      5.6246516      3.025          95.701033      0             -17584.895    
       396  -0.74573086     5.6212035      5.6212035      3.02           95.425744      0             -17605.757    
       397  -0.74907717     5.6177083      5.6177083      3.015          95.149319      0             -17623.907    
       398  -0.75242502     5.6141631      5.6141631      3.01           94.87167       0             -17639.264    
       399  -0.75577449     5.6105648      5.6105648      3.005          94.592703      0             -17651.746    
       400  -0.75912572     5.6069099      5.6069099      3              94.312316      0             -17661.274    
       401  -0.76247894     5.6031949      5.6031949      2.995          94.030399      0             -17667.767    
       402  -0.76583447     5.5994156      5.5994156      2.99           93.746831      0             -17671.149    
       403  -0.76919275     5.5955679      5.5955679      2.985          93.461484      0             -17671.343    
       404  -0.77255434     5.5916469      5.5916469      2.98           93.174213      0             -17668.275    
       405  -0.77591995     5.5876474      5.5876474      2.975          92.884865      0             -17661.878    
       406  -0.77929048     5.5835638      5.5835638      2.97           92.593268      0             -17652.086    
       407  -0.782667       5.5793898      5.5793898      2.965          92.299235      0             -17638.839    
       408  -0.78605086     5.5751184      5.5751184      2.96           92.002558      0             -17622.088    
       409  -0.78944364     5.570742       5.570742       2.955          91.703007      0             -17601.789    
       410  -0.7928473      5.5662521      5.5662521      2.95           91.400329      0             -17577.912    
       411  -0.79626414     5.5616391      5.5616391      2.945          91.094237      0             -17550.44     
       412  -0.79011294     5.5616391      5.5616391      2.945          91.094237      0             -17334.479    
Loop time of 0.0980032 on 1 procs for 412 steps with 2 atoms

0.3% CPU use with 1 MPI tasks x no OpenMP threads

Minimization stats:
  Stopping criterion = linesearch alpha is zero
  Energy initial, next-to-last, final = 
    -0.0973179779636101  -0.79626414245274 -0.790112941876327
  Force two-norm initial, final = 0.34060487 2.4622977
  Force max component initial, final = 0.24795649 1.7856357
  Final line search alpha, max atom move = 1.061834e-09 1.8960488e-09
  Iterations, force evaluations = 412 431

MPI task timing breakdown:
Section |  min time  |  avg time  |  max time  |%varavg| %total
---------------------------------------------------------------
Pair    | 0.0054803  | 0.0054803  | 0.0054803  |   0.0 |  5.59
Neigh   | 0.00058813 | 0.00058813 | 0.00058813 |   0.0 |  0.60
Comm    | 0.0022046  | 0.0022046  | 0.0022046  |   0.0 |  2.25
Output  | 0.074975   | 0.074975   | 0.074975   |   0.0 | 76.50
Modify  | 0          | 0          | 0          |   0.0 |  0.00
Other   |            | 0.01476    |            |       | 15.06

Nlocal:              2 ave           2 max           2 min
Histogram: 1 0 0 0 0 0 0 0 0 0
Nghost:            351 ave         351 max         351 min
Histogram: 1 0 0 0 0 0 0 0 0 0
Neighs:             95 ave          95 max          95 min
Histogram: 1 0 0 0 0 0 0 0 0 0

Total # of neighbors = 95
Ave neighs/atom = 47.5
Neighbor list builds = 19
Dangerous builds = 0



# ========== Output Final Structure ==========
write_data      optimized_structure.data pair ij
System init for write_data ...
Generated 0 of 1 mixed pair_coeff terms from geometric mixing rule
Total wall time: 0:00:00
