

# ========== Energy Minimization ==========
thermo          1
thermo_style    custom step pe lx ly lz vol temp press
minimize 1.0e-10 1.0e-10 10000 100000
Switching to 'neigh_modify every 1 delay 0 check yes' setting during minimization
WARNING: Energy due to 1 extra global DOFs will be included in minimizer energies
 (../min.cpp:219)
Per MPI rank memory allocation (min/avg/max) = 4.332 | 4.332 | 4.332 Mbytes
   Step         PotEng           Lx             Ly             Lz           Volume          Temp          Press     
         0  -5.4018059      3              3              5              45             0             -222204.33    
         1  -5.4205512      2.997          2.997          4.995          44.865135      0             -223174.87    
         2  -5.4393398      2.994          2.994          4.99           44.73054       0             -224130.45    
         3  -5.4581706      2.991          2.991          4.985          44.596214      0             -225079.7     
         4  -5.4770429      2.988          2.988          4.98           44.462157      0             -226023.65    
         5  -5.4959559      2.985          2.985          4.975          44.328369      0             -226963.1     
         6  -5.5149092      2.982          2.982          4.97           44.19485       0             -227898.88    
         7  -5.533902       2.979          2.979          4.965          44.0616        0             -228831.82    
         8  -5.5529339      2.976          2.976          4.96           43.928617      0             -229762.83    
         9  -5.5720046      2.973          2.973          4.955          43.795902      0             -230692.82    
        10  -5.5911137      2.97           2.97           4.95           43.663455      0             -231622.75    
        11  -5.610261       2.967          2.967          4.945          43.531275      0             -232553.55    
        12  -5.6294464      2.964          2.964          4.94           43.399362      0             -233486.03    
        13  -5.6486694      2.961          2.961          4.935          43.267716      0             -234413.01    
        14  -5.667929       2.958          2.958          4.93           43.136337      0             -235327.19    
        15  -5.6872239      2.955          2.955          4.925          43.005223      0             -236229.5     
        16  -5.7065528      2.952          2.952          4.92           42.874376      0             -237120.63    
        17  -5.7259148      2.949          2.949          4.915          42.743794      0             -238001.31    
        18  -5.7453086      2.946          2.946          4.91           42.613478      0             -238872.26    
        19  -5.7647332      2.943          2.943          4.905          42.483426      0             -239734.27    
        20  -5.7841879      2.94           2.94           4.9            42.35364       0             -240588.53    
        21  -5.8036715      2.937          2.937          4.895          42.224118      0             -241431.62    
        22  -5.8231826      2.934          2.934          4.89           42.094861      0             -242254.51    
        23  -5.8427192      2.931          2.931          4.885          41.965867      0             -243056.06    
        24  -5.8622794      2.928          2.928          4.88           41.837138      0             -243837.15    
        25  -5.8818615      2.925          2.925          4.875          41.708672      0             -244598.61    
        26  -5.9014636      2.922          2.922          4.87           41.580469      0             -245341.22    
        27  -5.921084       2.919          2.919          4.865          41.452529      0             -246065.74    
        28  -5.9407212      2.916          2.916          4.86           41.324852      0             -246772.95    
        29  -5.9603737      2.913          2.913          4.855          41.197437      0             -247463.57    
        30  -5.9800398      2.91           2.91           4.85           41.070285      0             -248138.31    
        31  -5.9997183      2.907          2.907          4.845          40.943394      0             -248797.87    
        32  -6.0194078      2.904          2.904          4.84           40.816765      0             -249442.88    
        33  -6.0391069      2.901          2.901          4.835          40.690398      0             -250074.07    
        34  -6.0588145      2.898          2.898          4.83           40.564291      0             -250690.9     
        35  -6.0785293      2.895          2.895          4.825          40.438446      0             -251297.49    
        36  -6.0982505      2.892          2.892          4.82           40.31286       0             -251895.84    
        37  -6.1179774      2.889          2.889          4.815          40.187536      0             -252487.27    
        38  -6.1377092      2.886          2.886          4.81           40.062471      0             -253071.96    
        39  -6.1574454      2.883          2.883          4.805          39.937666      0             -253650.41    
        40  -6.1771849      2.88           2.88           4.8            39.81312       0             -254204.15    
        41  -6.1969236      2.877          2.877          4.795          39.688834      0             -254687.04    
        42  -6.2166557      2.874          2.874          4.79           39.564806      0             -255094.81    
        43  -6.2363751      2.871          2.871          4.785          39.441037      0             -255425.5     
        44  -6.2560759      2.868          2.868          4.78           39.317527      0             -255677.08    
        45  -6.2757517      2.865          2.865          4.775          39.194274      0             -255847.44    
        46  -6.2953962      2.862          2.862          4.77           39.07128       0             -255934.4     
        47  -6.3150031      2.859          2.859          4.765          38.948543      0             -255935.72    
        48  -6.3345655      2.856          2.856          4.76           38.826063      0             -255849.1     
        49  -6.3540769      2.853          2.853          4.755          38.703841      0             -255671.96    
        50  -6.3735306      2.85           2.85           4.75           38.581875      0             -255418.9     
        51  -6.3929224      2.847          2.847          4.745          38.460166      0             -255120.65    
        52  -6.4122492      2.844          2.844          4.74           38.338713      0             -254778.31    
        53  -6.4315075      2.841          2.841          4.735          38.217516      0             -254389.08    
        54  -6.450694       2.838          2.838          4.73           38.096574      0             -253950.58    
        55  -6.4698051      2.835          2.835          4.725          37.975888      0             -253460.36    
        56  -6.4888776      2.832          2.832          4.72           37.855457      0             -251942.11    
        57  -6.5077849      2.829          2.829          4.715          37.735281      0             -252183.05    
        58  -6.5266665      2.826          2.826          4.71           37.61536       0             -252325.45    
        59  -6.5455149      2.823          2.823          4.705          37.495693      0             -252365.32    
        60  -6.5643223      2.82           2.82           4.7            37.37628       0             -252298.12    
        61  -6.5830807      2.817          2.817          4.695          37.257121      0             -252123.15    
        62  -6.6017825      2.814          2.814          4.69           37.138215      0             -251849.48    
        63  -6.6204204      2.811          2.811          4.685          37.019563      0             -251473.71    
        64  -6.6389869      2.808          2.808          4.68           36.901164      0             -250990.93    
        65  -6.6574741      2.805          2.805          4.675          36.783017      0             -250396.43    
        66  -6.6758738      2.802          2.802          4.67           36.665123      0             -249685.42    
        67  -6.6941775      2.799          2.799          4.665          36.547481      0             -248853.13    
        68  -6.7123765      2.796          2.796          4.66           36.430091      0             -247894.79    
        69  -6.7304616      2.793          2.793          4.655          36.312952      0             -246805.64    
        70  -6.7484235      2.79           2.79           4.65           36.196065      0             -245580.93    
        71  -6.7662526      2.787          2.787          4.645          36.079429      0             -244215.93    
        72  -6.783939       2.784          2.784          4.64           35.963044      0             -242709.7     
        73  -6.8014752      2.781          2.781          4.635          35.846909      0             -241137.67    
        74  -6.8188587      2.778          2.778          4.63           35.731025      0             -239530.07    
        75  -6.8360873      2.775          2.775          4.625          35.615391      0             -237887.18    
        76  -6.8531591      2.772          2.772          4.62           35.500006      0             -236209.22    
        77  -6.8700722      2.769          2.769          4.615          35.384871      0             -234496.44    
        78  -6.8868246      2.766          2.766          4.61           35.269985      0             -232749.15    
        79  -6.9034144      2.763          2.763          4.605          35.155348      0             -230967.66    
        80  -6.9198399      2.76           2.76           4.6            35.04096       0             -229152.36    
        81  -6.9360992      2.757          2.757          4.595          34.92682       0             -227303.63    
        82  -6.9521906      2.754          2.754          4.59           34.812928      0             -225422.13    
        83  -6.9681178      2.751          2.751          4.585          34.699285      0             -223283.62    
        84  -6.9838638      2.748          2.748          4.58           34.585888      0             -221655.91    
        85  -6.9994585      2.745          2.745          4.575          34.472739      0             -219972.89    
        86  -7.0148986      2.742          2.742          4.57           34.359837      0             -218236.42    
        87  -7.0301809      2.739          2.739          4.565          34.247182      0             -216435.62    
        88  -7.0452998      2.736          2.736          4.56           34.134774      0             -214529.2     
        89  -7.0602481      2.733          2.733          4.555          34.022611      0             -212506.59    
        90  -7.0750183      2.73           2.73           4.55           33.910695      0             -210369.83    
        91  -7.0896033      2.727          2.727          4.545          33.799024      0             -208120.4     
        92  -7.1039958      2.724          2.724          4.54           33.687599      0             -205757.13    
        93  -7.1181884      2.721          2.721          4.535          33.576419      0             -203271.83    
        94  -7.1321735      2.718          2.718          4.53           33.465484      0             -200662.7     
        95  -7.1459431      2.715          2.715          4.525          33.354793      0             -197929.04    
        96  -7.1594896      2.712          2.712          4.52           33.244347      0             -195070.22    
        97  -7.1728052      2.709          2.709          4.515          33.134145      0             -192085.65    
        98  -7.1858821      2.706          2.706          4.51           33.024186      0             -188974.76    
        99  -7.1987128      2.703          2.703          4.505          32.914472      0             -185737.06    
       100  -7.2112906      2.7            2.7            4.5            32.805         0             -182424.66    
       101  -7.2236138      2.697          2.697          4.495          32.695771      0             -179086.65    
       102  -7.2356817      2.694          2.694          4.49           32.586786      0             -175722.05    
       103  -7.2474935      2.691          2.691          4.485          32.478042      0             -172333.78    
       104  -7.2590489      2.688          2.688          4.48           32.369541      0             -168927.66    
       105  -7.270348       2.685          2.685          4.475          32.261282      0             -165509.34    
       106  -7.2813912      2.682          2.682          4.47           32.153264      0             -162084.72    
       107  -7.2921792      2.679          2.679          4.465          32.045488      0             -158659.89    
       108  -7.3027134      2.676          2.676          4.46           31.937953      0             -155241.12    
       109  -7.3129955      2.673          2.673          4.455          31.830659      0             -151834.95    
       110  -7.3230275      2.67           2.67           4.45           31.723605      0             -148448.1     
       111  -7.3328121      2.667          2.667          4.445          31.616792      0             -145087.51    
       112  -7.3423521      2.664          2.664          4.44           31.510218      0             -141760.37    
       113  -7.3516513      2.661          2.661          4.435          31.403885      0             -138474.07    
       114  -7.3607134      2.658          2.658          4.43           31.297791      0             -135236.18    
       115  -7.369543       2.655          2.655          4.425          31.191936      0             -132054.95    
       116  -7.378145       2.652          2.652          4.42           31.08632       0             -128937.37    
       117  -7.3865248      2.649          2.649          4.415          30.980942      0             -125890.1     
       118  -7.394688       2.646          2.646          4.41           30.875804      0             -122912.58    
       119  -7.4026401      2.643          2.643          4.405          30.770903      0             -120007.22    
       120  -7.4103869      2.64           2.64           4.4            30.66624       0             -117182.94    
       121  -7.417935       2.637          2.637          4.395          30.561815      0             -114449.13    
       122  -7.4252913      2.634          2.634          4.39           30.457627      0             -111816.04    
       123  -7.4324612      2.631          2.631          4.385          30.353676      0             -109162.46    
       124  -7.4394354      2.628          2.628          4.38           30.249962      0             -106269.82    
       125  -7.4461995      2.625          2.625          4.375          30.146484      0             -103152.99    
       126  -7.4527402      2.622          2.622          4.37           30.043243      0             -99819.189    
       127  -7.4590454      2.619          2.619          4.365          29.940238      0             -96294.653    
       128  -7.4651042      2.616          2.616          4.36           29.837468      0             -92583.565    
       129  -7.4709053      2.613          2.613          4.355          29.734934      0             -88676.64     
       130  -7.4764372      2.61           2.61           4.35           29.632635      0             -84565.219    
       131  -7.4816878      2.607          2.607          4.345          29.530571      0             -80239.913    
       132  -7.4866443      2.604          2.604          4.34           29.428741      0             -75690.852    
       133  -7.4912936      2.601          2.601          4.335          29.327146      0             -70907.847    
       134  -7.4956219      2.598          2.598          4.33           29.225785      0             -65880.398    
       135  -7.4996149      2.595          2.595          4.325          29.124658      0             -60597.63     
       136  -7.5032576      2.592          2.592          4.32           29.023764      0             -55048.276    
       137  -7.5065347      2.589          2.589          4.315          28.923104      0             -49220.729    
       138  -7.5094298      2.586          2.586          4.31           28.822677      0             -43102.995    
       139  -7.5119262      2.583          2.583          4.305          28.722482      0             -36682.653    
       140  -7.5140065      2.58           2.58           4.3            28.62252       0             -29946.867    
       141  -7.5156526      2.577          2.577          4.295          28.52279       0             -22882.91     
       142  -7.5168457      2.574          2.574          4.29           28.423292      0             -15478.721    
       143  -7.5175681      2.571          2.571          4.285          28.324026      0             -7814.4544    
       144  -7.5178106      2.568          2.568          4.28           28.224991      0             -5.7482257    
       145  -7.5178106      2.5679978      2.5679978      4.2799964      28.224919      0             -0.014046208  
Loop time of 0.0932933 on 1 procs for 145 steps with 2 atoms

28.2% CPU use with 1 MPI tasks x no OpenMP threads

Minimization stats:
  Stopping criterion = energy tolerance
  Energy initial, next-to-last, final = 
     -5.40180588535154  -7.51781062723606  -7.51781062736548
  Force two-norm initial, final = 18.723021 8.6722003e-07
  Force max component initial, final = 18.723021 8.6722003e-07
  Final line search alpha, max atom move = 1 8.6722003e-07
  Iterations, force evaluations = 145 146

MPI task timing breakdown:
Section |  min time  |  avg time  |  max time  |%varavg| %total
---------------------------------------------------------------
Pair    | 0.027649   | 0.027649   | 0.027649   |   0.0 | 29.64
Neigh   | 0.0020474  | 0.0020474  | 0.0020474  |   0.0 |  2.19
Comm    | 0.00146    | 0.00146    | 0.00146    |   0.0 |  1.56
Output  | 0.046644   | 0.046644   | 0.046644   |   0.0 | 50.00
Modify  | 0          | 0          | 0          |   0.0 |  0.00
Other   |            | 0.01549    |            |       | 16.61

Nlocal:              2 ave           2 max           2 min
Histogram: 1 0 0 0 0 0 0 0 0 0
Nghost:            217 ave         217 max         217 min
Histogram: 1 0 0 0 0 0 0 0 0 0
Neighs:             62 ave          62 max          62 min
Histogram: 1 0 0 0 0 0 0 0 0 0

Total # of neighbors = 62
Ave neighs/atom = 31
Neighbor list builds = 6
Dangerous builds = 0


# ========== Output Final Structure ==========
write_data      optimized_structure_EAM.data pair ij
System init for write_data ...
Total wall time: 0:00:00
