LAMMPS data file via write_data, version 7 Feb 2024, timestep = 412, units = metal

2 atoms
2 atom types

0.7191804630599508 6.280819536940045 xlo xhi
0.7191804630599508 6.280819536940045 ylo yhi
1.0275000000000156 3.97249999999992 zlo zhi

Masses

1 63.546
2 196.967

PairIJ Coeffs # lj/cut

1 1 0.20476 2.3305 10
1 2 0.216733 2.47526 10
2 2 0.229406 2.62901 10

Atoms # atomic

1 1 0.7191804630599508 0.7191804630599508 1.0275000000000156 0 0 0
2 2 3.4999999999999964 3.4999999999999964 2.499999999999967 0 0 0

Velocities

1 0 0 0
2 0 0 0
