LAMMPS data file via write_data, version 7 Feb 2024, timestep = 400, units = metal

2 atoms
2 atom types

0.9975000000000163 4.00249999999992 xlo xhi
0.9975000000000163 4.00249999999992 ylo yhi
1.3964999999999983 5.603500000000065 zlo zhi

Masses

1 63.55
2 196.967

Atoms # atomic

1 1 0.9975000000000163 0.9975000000000163 1.3964999999999983 0 0 0
2 2 2.499999999999967 2.499999999999967 3.5000000000000178 0 0 0

Velocities

1 0 0 0
2 0 0 0
