LAMMPS data file via write_data, version 7 Feb 2024, timestep = 320, units = metal

4 atoms
1 atom types

0.9549999894385004 5.0450000105614645 xlo xhi
0.9549999894385004 5.0450000105614645 ylo yhi
0.9549999894385004 5.0450000105614645 zlo zhi

Masses

1 107.87

Atoms # atomic

1 1 0.9549999894385004 0.9549999894385004 0.9549999894385004 0 0 0
2 1 2.9999999999999853 2.9999999999999853 0.9549999894385004 0 0 0
3 1 2.9999999999999853 0.9549999894385004 2.9999999999999853 0 0 0
4 1 0.9549999894385004 2.9999999999999853 2.9999999999999853 0 0 0

Velocities

1 0 0 0
2 0 0 0
3 0 0 0
4 0 0 0
