LAMMPS data file via write_data, version 7 Feb 2024, timestep = 0, units = metal

4 atoms
1 atom types

0 10 xlo xhi
0 10 ylo yhi
0 10 zlo zhi

Masses

1 107.87

Atoms # atomic

1 1 0 0 0 0 0 0
2 1 5 5 0 0 0 0
3 1 5 0 5 0 0 0
4 1 0 5 5 0 0 0

Velocities

1 0 0 0
2 0 0 0
3 0 0 0
4 0 0 0
