ITEM: TIMESTEP
2500
ITEM: NUMBER OF ATOMS
864
ITEM: BOX BOUNDS pp pp pp
0.0000000000000000e+00 3.2219999999999999e+01
0.0000000000000000e+00 3.2219999999999999e+01
0.0000000000000000e+00 3.2219999999999999e+01
ITEM: ATOMS id type vx vy vz
149 1 -0.979986 0.935256 2.20183
173 1 0.38971 -0.427761 0.995831
148 2 -0.219214 -0.615976 0.698818
2 1 -1.18399 -0.324895 2.57278
146 1 2.19606 -1.11738 1.97353
7 2 1.29586 -3.41292 0.412288
31 2 0.281837 0.290763 2.67591
4 2 -0.971859 -1.42572 0.357441
29 1 1.70186 -0.0814324 1.04794
168 2 -1.21651 -0.258677 -0.186902
357 1 1.53544 -0.116635 2.23455
9 1 0.778779 -3.56432 -0.841127
70 1 -0.608976 -2.74207 1.82776
214 1 2.04128 0.904008 1.1859
177 1 -1.51252 0.796177 0.338326
175 2 1.81083 -0.193241 1.51568
35 2 -1.30096 -2.69839 1.05589
179 2 3.29896 -0.474993 -2.04982
152 2 1.55621 -2.46586 0.652322
6 1 -1.12376 -0.826944 -0.350255
150 1 -0.920609 -1.80706 0.106474
30 1 1.44454 2.5285 -0.713107
174 1 -1.41509 -1.08665 -0.920115
153 1 2.55438 1.1067 -1.2612
176 2 1.9701 -0.224371 1.60179
356 2 0.818489 -0.59848 1.29195
181 1 1.65099 -1.33572 1.45109
16 2 1.50787 -0.278054 2.35176
159 2 1.05938 -1.6187 0.0911904
39 2 -0.521848 0.0711934 0.884159
183 2 -1.42865 0.401719 0.265258
156 2 -1.4782 0.751593 -2.5743
10 1 1.06484 -0.802198 -1.25951
154 1 -0.292544 0.555528 -0.206461
14 1 1.06544 1.92712 2.12725
158 1 2.86456 2.32641 -0.456088
160 2 0.339075 0.772568 0.100857
157 1 2.13843 0.0483273 2.51028
77 1 -3.2165 1.50417 -1.91141
27 2 -0.586296 -2.12629 -1.35422
41 1 0.229104 -0.626747 -0.0730012
13 1 0.0581242 -3.77125 -0.45785
185 1 3.15164 0.60193 -1.34124
43 2 0.467937 1.56128 0.979516
187 2 -1.12642 -1.42109 2.40899
19 2 -0.593503 0.810415 0.934011
164 2 -0.533362 -0.71199 -2.16669
18 1 0.801152 1.63074 0.82929
162 1 -0.139382 -1.55295 1.37516
25 1 -0.0988059 -0.0755261 1.55859
17 1 -1.18018 0.00607589 2.25279
304 2 -1.72983 0.154051 1.48194
188 2 0.0542026 0.249988 0.699209
190 1 0.443273 0.976578 0.211288
171 2 0.799949 -0.390797 -0.280056
45 1 1.44485 -0.328912 1.79731
337 1 -1.11914 1.08602 -0.0517596
32 2 0.750528 0.478536 -1.80716
21 1 -2.37372 1.40732 0.386278
169 1 -2.28915 1.77789 -0.10278
215 2 -0.56801 1.56491 0.365365
189 1 -0.916764 -0.0207005 -0.747306
47 2 0.728267 -0.13707 -2.40011
191 2 -0.10016 -2.56643 3.21788
22 1 1.20422 0.85563 3.14046
166 1 1.42242 -1.64971 -2.70163
165 1 0.730313 -2.6974 -0.547632
167 2 0.753306 -0.703362 -0.476324
11 2 0.0203185 2.37617 -0.499137
361 1 2.4969 -0.287538 -0.0137961
172 2 -0.486206 0.585959 1.70137
217 1 0.694631 -0.986846 0.0927857
336 2 -0.953704 -1.02082 -0.072849
360 2 0.141006 -0.325837 -2.296
193 1 -1.24852 0.814231 0.973204
197 1 -1.57307 1.3856 -0.466475
51 2 -1.29687 -2.72118 0.60181
195 2 -2.10972 1.3599 -1.97744
196 2 -0.675119 0.698494 2.68757
26 1 -0.809096 1.24342 0.558901
170 1 0.624381 0.231564 0.0797688
50 1 -1.75968 -1.05643 -1.44531
194 1 0.761647 0.107694 1.04514
55 2 1.09394 1.14441 0.738104
316 2 -1.75763 -1.66511 -0.860584
20 2 3.8143 1.11713 -0.618766
221 1 -1.86398 -0.621549 -0.616742
71 2 -0.342092 2.26854 -2.69096
56 2 -1.9283 0.291643 -0.805252
201 1 -1.18746 0.904038 -0.0864419
199 2 -0.38633 0.29071 -0.603391
203 2 0.972552 -2.46316 -0.418506
200 2 -1.25636 1.34249 -1.91631
54 1 -0.692241 -0.801053 0.426113
198 1 -1.08196 -3.64437 -1.034
344 2 1.56361 0.368989 -2.07855
223 2 -0.0979244 2.64612 2.11382
58 1 -0.215796 0.701573 0.460947
83 2 2.3567 -0.452859 -2.60001
225 1 -0.332213 0.0991622 1.0644
155 2 -0.274398 -0.0995394 -2.49002
213 1 2.17152 2.42852 1.18005
231 2 2.92315 0.908574 1.43984
227 2 1.08535 0.563573 1.12427
87 2 0.946554 -0.408178 4.03129
59 2 -3.35461 0.678362 -1.40957
205 1 -1.06059 -1.57625 -1.42088
63 2 2.32957 0.523499 0.0597726
207 2 1.92314 0.133166 -2.25435
180 2 0.512457 0.541169 -0.200483
204 2 -0.119845 1.98878 -2.76218
34 1 -0.033434 1.39044 -1.63968
178 1 -0.365993 -0.0255201 -1.3941
202 1 -1.39859 1.05638 0.234046
38 1 -0.875187 2.01048 -0.757516
182 1 -0.26271 -0.329963 -1.62758
62 1 -0.109352 0.133673 -1.34622
206 1 -0.209332 -2.2124 1.15246
229 1 -2.30476 1.19846 -0.0711397
161 1 0.26341 -2.1903 -0.807503
353 1 -3.19571 0.77049 -3.11864
210 1 1.54565 -0.865513 -3.31665
233 1 1.01991 -2.23206 1.28442
66 1 0.737891 -0.370854 1.31526
186 1 0.64696 -1.68738 0.42175
42 1 -0.759943 -1.73671 0.913269
212 2 1.10307 -1.42443 -2.33122
208 2 -0.565378 -0.0728267 -0.486645
184 2 -1.3591 0.0889677 0.299369
209 1 -0.769242 -1.80626 -1.57931
67 2 0.0225205 2.18567 5.31977
211 2 0.492972 -2.32617 1.66175
312 2 0.096382 0.892544 1.85799
216 2 1.1752 1.96041 0.084249
313 1 0.188481 1.37734 -1.54251
69 1 -1.87575 2.66128 0.36549
72 2 0.318386 2.36579 0.18489
192 2 -3.91301 -0.142853 0.465333
46 1 -2.50809 0.432586 -1.48392
239 2 1.57743 1.67512 -1.69437
345 1 -1.44731 2.2476 1.35617
268 2 1.12945 3.64203 -1.18856
305 1 1.54991 1.25931 -1.12995
235 2 -2.12308 -1.82495 -3.05745
332 2 -1.97906 2.20945 0.296229
377 1 -1.1415 -2.72993 -0.0713254
91 2 0.978956 -0.883959 0.834447
151 2 -2.37568 1.60197 -1.95759
292 2 0.399359 1.35054 -0.723227
328 2 1.31179 -0.67672 -0.597347
49 1 1.74943 0.754063 1.30039
40 2 -0.373356 -0.797988 0.601566
24 2 -1.51866 1.75296 2.14165
461 1 -1.52843 3.28697 1.98539
436 2 0.0512954 0.746999 -1.48948
290 1 0.90154 -1.937 0.819775
434 1 1.55358 -0.0985855 1.13932
439 2 -1.60721 0.0969071 -3.03901
319 2 0.520965 -2.67963 -0.196838
317 1 -0.75016 1.03321 1.35261
604 2 1.19052 0.510427 1.56219
460 2 2.14451 -2.18939 1.45705
521 1 0.377905 -0.261025 -0.069616
291 2 -2.52304 1.51857 -0.07057
301 1 0.754423 -2.5706 0.475595
459 2 -5.4493 -2.44864 -0.861187
458 1 -0.374208 3.21703 -0.659113
624 2 0.44484 0.705398 0.828237
455 2 3.20587 3.72154 -2.60295
465 1 2.64585 0.212868 1.60599
463 2 -1.49407 1.36305 -1.69299
323 2 1.75656 -3.2913 2.07632
467 2 -2.09167 1.12202 1.51851
440 2 -2.09523 1.14624 -0.919723
294 1 2.27074 0.441223 -2.71035
438 1 -0.67925 1.09956 -1.30653
609 1 -0.958473 -0.801187 -0.569311
464 2 -0.978163 0.423661 -1.79581
318 1 -0.337754 -0.862654 -0.0887751
462 1 0.975414 0.647689 -1.67379
321 1 -0.150838 3.03292 0.7799
297 1 0.0836285 1.43185 0.0762653
509 1 2.73901 -0.822247 2.7024
296 2 0.73846 3.10497 -2.11746
324 2 -0.41878 -1.45082 -2.42003
469 1 0.249877 -0.465833 0.243661
327 2 -1.09048 -1.38486 1.39805
471 2 1.42896 -0.680659 -0.50811
444 2 1.73169 0.503306 0.911091
298 1 -2.6387 0.916191 -0.261629
442 1 -0.602197 2.29371 -2.67321
302 1 -0.591492 -0.665872 2.97949
446 1 2.41328 0.613694 0.054545
451 2 -0.744959 -1.44095 0.780555
588 2 -0.743366 -2.93308 -1.44775
448 2 0.316769 -0.474482 -2.1879
322 1 1.26191 1.51674 0.937251
481 1 -0.206902 -0.683598 2.81675
325 1 0.0557915 2.62089 -0.397817
501 1 -0.110305 2.48411 -0.520772
375 2 -0.959144 -0.51411 -1.43197
473 1 0.433298 -0.796744 1.18028
331 2 1.23545 -2.2539 2.14228
475 2 0.266949 0.628105 -0.641328
452 2 -1.86556 -3.08649 -2.58036
306 1 -0.106291 1.01269 0.595716
450 1 0.376172 -0.153251 -0.282232
592 2 0.783129 0.683333 -3.40098
369 1 0.0778536 0.473036 -0.956687
617 1 0.984114 2.52988 0.977058
593 1 -1.88143 2.81178 2.34131
457 1 0.773639 -2.74758 -2.05915
333 1 1.57051 -0.888559 -0.132999
308 2 -2.08359 0.271765 1.94316
477 1 -0.856907 1.73794 -0.667063
335 2 -0.289412 0.280633 -1.04532
479 2 -0.0507782 -1.50412 0.606082
456 2 -0.0803935 -0.950669 -0.531662
310 1 1.16597 -0.70675 -0.67575
454 1 -0.710008 -2.2799 0.698625
601 1 1.35025 -0.453215 0.774508
596 2 0.00220812 0.651684 -0.82027
621 1 1.88349 -2.32384 2.07968
359 2 1.78339 1.06767 1.1068
315 2 1.20984 0.558088 1.45685
525 1 0.00375915 2.23219 0.0971066
485 1 0.0514134 0.0787599 -1.80607
339 2 0.313222 -1.57724 0.165626
483 2 0.546133 0.3655 -0.339211
484 2 -2.5676 -0.734835 0.32243
314 1 1.15636 -1.00395 -2.12831
338 1 -0.122082 1.68588 0.00676868
482 1 0.186885 0.345713 0.103713
343 2 -0.0536287 -0.492623 1.09803
487 2 1.68474 0.947515 0.054906
502 1 -2.17368 -0.309874 -0.857555
303 2 1.8296 -0.965817 2.10082
625 1 0.522627 -0.297925 0.533326
504 2 1.30211 -2.09574 -2.30644
503 2 -1.09639 -0.892749 0.732882
489 1 -0.110799 0.265038 -0.59011
491 2 -2.6398 3.75636 -0.489941
320 2 -2.27337 -1.6698 0.937646
488 2 0.584936 -3.86539 -1.27258
342 1 0.592613 0.580764 0.582419
486 1 -0.0421327 0.588459 -4.93832
371 2 -0.0775436 -0.51791 -2.24869
515 2 0.2887 2.54762 0.134857
358 1 -1.29491 0.154595 -1.33886
373 1 0.442412 -1.23564 1.96867
468 2 1.15295 0.151925 2.31067
466 1 -2.84399 -0.544233 -1.96833
519 2 -1.29044 -0.0983295 -0.523275
346 1 -0.421378 2.27183 -0.55741
490 1 -1.12416 0.660766 1.92289
348 2 2.36222 -0.933621 -0.0398681
349 1 -0.745904 2.32109 -2.23627
347 2 1.77563 -0.787909 0.220797
493 1 -1.94938 1.67362 -3.34822
351 2 -2.12224 -0.853767 -0.315584
495 2 -2.73194 0.450008 -0.14769
492 2 1.87381 -0.256777 -2.56143
470 1 -0.110631 -2.04434 3.34771
350 1 -1.93276 -1.13187 1.66805
494 1 -0.610026 -0.983853 3.43415
326 1 0.754725 -0.695671 0.37822
517 1 1.75361 0.820328 0.277564
367 2 0.547032 -1.36064 -1.43484
300 2 1.13823 -1.4134 0.743333
352 2 0.172902 -0.733758 0.371537
498 1 -1.08433 0.715693 0.590847
354 1 0.361221 -2.2099 1.01859
474 1 -1.23912 -0.0201488 -0.890745
330 1 0.746747 -0.505156 2.04697
476 2 1.62673 0.212113 -0.540006
497 1 0.00806273 -1.40141 -2.01732
355 2 0.333581 -0.737857 1.54746
499 2 -1.88248 0.22552 -2.5105
496 2 -2.19662 0.47349 -2.29267
472 2 -0.23805 -0.50931 -0.624171
478 1 -1.53158 1.76406 -1.75725
480 2 1.06485 0.560358 -2.25129
379 2 0.913897 -1.17605 2.3425
500 2 -0.517217 0.289792 0.637638
334 1 0.498037 -0.474678 0.72752
589 1 1.16078 1.13284 2.41555
641 1 -1.42951 0.667179 -0.43488
616 2 0.161809 -0.00684293 -2.30793
644 2 -0.166103 -0.846423 -1.99663
309 1 -2.30703 -1.21802 -0.640623
341 1 1.03409 0.310276 0.378215
329 1 -0.640638 1.10651 1.3181
340 2 0.735686 1.05969 -1.90699
749 1 0.968776 -1.56692 -0.421729
603 2 -2.23795 -0.343309 -1.53015
724 2 -2.44719 -1.47723 0.885946
578 1 -0.557925 -0.284506 1.82234
722 1 -0.174666 0.141658 3.88738
620 2 2.27443 0.100944 2.41767
28 2 0.44145 -0.902033 -0.283773
748 2 2.50029 -1.91819 -1.39265
602 1 -1.25519 -2.26629 -0.313265
746 1 -2.98636 -0.880935 -1.04791
605 1 0.481071 -0.135723 0.459292
735 2 -2.46959 -0.77379 -2.60766
753 1 -0.616739 0.0193691 0.577811
607 2 -2.35188 -0.0944652 -0.38663
751 2 2.55079 -3.78085 -2.42161
755 2 -0.714746 -1.11631 -1.0932
728 2 0.864088 1.01278 -1.26521
582 1 -1.26748 0.92708 3.05326
726 1 -0.920832 -0.496277 -2.98274
752 2 -2.33602 -0.378395 0.911157
606 1 -0.803959 -1.82723 -0.0331493
750 1 1.33423 0.844201 -1.37329
33 1 -0.657017 -1.00176 0.750374
628 2 -0.873031 -0.75546 -2.75471
611 2 0.3902 0.435857 -1.06182
633 1 0.403563 -0.795699 -1.12432
757 1 1.77209 0.807954 -0.632106
615 2 1.60879 2.54435 1.6101
759 2 -0.485329 -1.45834 0.422187
732 2 0.434372 -0.619221 -1.81175
586 1 -0.950755 0.733702 -0.593152
730 1 -1.07821 0.818722 -0.22543
590 1 0.694149 1.99583 0.676847
734 1 -1.99375 0.614789 -1.96294
736 2 1.30244 0.557004 0.685237
610 1 1.60826 -2.14598 0.0532544
754 1 0.51329 -0.773181 -0.0568476
614 1 0.617119 -1.04521 -1.97124
12 2 -0.0301606 -0.661725 1.48679
591 2 -0.269624 -0.880407 -0.573945
741 1 -0.0643277 0.329604 1.79236
731 2 -0.968453 -1.39104 -1.30081
629 1 -0.665651 -0.57157 -1.34839
761 1 -2.23993 -0.623313 -0.171004
595 2 -0.602013 3.86927 -2.09213
619 2 -0.580489 2.0516 2.47421
763 2 -1.00336 2.63954 -2.74643
740 2 -1.3491 -0.643593 -1.81443
594 1 -1.67943 -1.53562 -1.05616
738 1 0.368416 2.24968 1.05271
764 2 2.83096 0.934046 -0.940654
739 2 2.27577 -1.20732 -0.426823
608 2 3.54143 -0.000716833 -0.0158153
745 1 -1.00709 1.35753 1.27172
747 2 0.580694 0.865826 2.36297
768 2 -0.474574 -0.956564 -1.08938
587 2 0.193048 0.611096 -1.09807
765 1 -1.13022 -2.77562 -2.48335
623 2 1.09563 1.06398 -0.298251
767 2 2.06725 -0.874584 1.42609
744 2 -1.35061 -1.64827 -1.18194
598 1 4.03812 -0.851182 1.66959
742 1 -0.19505 0.0308746 0.916362
771 2 1.46987 -2.90765 2.24736
766 1 1.3328 1.30595 0.0173552
580 2 -3.30799 2.50935 -0.937235
44 2 -0.467 -0.657016 0.169036
632 2 1.13573 0.678564 1.0483
622 1 -1.04805 -1.35466 0.0583549
52 2 -1.03787 2.50498 1.00159
864 2 -0.544683 0.548596 1.14013
769 1 -0.948701 -1.09869 -0.983756
773 1 2.10536 1.602 -0.184449
627 2 0.376997 0.509979 -1.53274
772 2 -0.817521 0.61128 0.398377
626 1 0.69859 0.622698 -1.70677
770 1 -1.58503 -0.573886 -0.0748855
775 2 -0.919686 -1.89633 1.03829
651 2 2.22316 3.05551 -0.0353064
631 2 1.07094 -0.216212 1.68667
648 2 -0.368236 0.934377 2.01038
53 1 0.252757 0.306895 0.771313
57 1 0.11806 -1.02675 -0.0807553
777 1 -1.35073 -0.822981 0.120381
635 2 -0.51615 0.989147 -0.777581
779 2 -0.102924 -0.265491 -0.838273
776 2 -0.0952573 -0.359664 4.69725
630 1 -0.415727 -2.23127 1.01165
774 1 -1.35167 -2.49488 -0.28191
803 2 -1.94012 -0.903397 4.42017
778 1 -0.161741 -0.889091 -0.336911
799 2 0.603442 1.95995 -0.197342
645 1 0.285269 -0.0070334 -1.17679
813 1 -1.88608 0.267462 1.16812
637 1 -2.737 -1.35276 -0.0423376
8 2 -0.304037 1.62035 0.787974
727 2 -0.268647 1.14819 1.89112
805 1 0.514604 -0.439852 -2.39031
36 2 0.278773 0.108348 2.61997
636 2 -1.32396 -2.18488 -0.8379
85 1 -1.89977 1.65599 1.39863
781 1 0.371217 1.4983 1.22013
639 2 -1.35919 0.91913 1.09885
783 2 -1.21346 -0.328934 -2.99582
756 2 1.03626 -0.909741 0.529693
780 2 0.111561 1.15428 -1.77949
634 1 0.263229 0.661665 -1.02331
758 1 -1.67186 -1.55514 -0.250058
638 1 0.150836 -2.67566 -0.337875
782 1 0.381257 -1.44606 0.312122
61 1 1.561 1.38924 -0.699067
60 2 1.7909 -1.36725 0.14102
661 1 -1.46645 1.84228 2.36461
612 2 0.809046 0.983506 0.773858
792 2 2.66729 3.90396 -3.27135
89 1 -1.52593 1.7637 -0.533098
640 2 -2.4993 -2.8486 0.0426729
784 2 -0.499092 0.430713 3.11469
791 2 1.33168 2.47654 0.0331298
790 1 0.738371 1.09807 1.89683
786 1 -0.299955 0.447672 0.0805544
642 1 1.55796 0.0708401 -0.688329
762 1 0.596782 -1.09186 -1.84365
65 1 0.678977 -1.68679 0.282272
618 1 0.577008 1.11493 -0.990845
788 2 -1.80382 -1.26982 -1.96497
785 1 -1.05094 -4.72786 -2.19764
643 2 -1.69195 0.970815 0.30604
787 2 -0.400015 -0.844026 1.79861
760 2 0.324988 0.905907 -0.897489
646 1 0.679427 2.37893 1.39689
64 2 0.703332 -1.40633 1.53201
613 1 0.914377 0.437418 -2.4774
667 2 -1.92207 0.622911 -1.67142
789 1 1.84736 1.69212 0.835253
647 2 -1.69077 1.48672 1.03635
669 1 1.17965 -0.501926 -1.30913
665 1 -0.982716 -0.197259 -1.75444
37 1 -2.5162 -2.52663 1.50592
48 2 -1.30596 -1.43544 -1.07605
68 2 1.7349 -0.700156 -0.27885
584 2 -1.06281 -0.700164 -1.01133
600 2 -1.70594 -0.643443 1.26904
241 1 -1.54348 1.99434 -1.80951
245 1 -1.89338 -2.67835 -1.67721
99 2 -0.155673 -1.53845 0.894314
220 2 1.17119 1.2557 1.41104
74 1 0.794348 0.0487745 -0.435659
218 1 0.0748419 -2.26997 -0.769696
219 2 -1.90445 -0.637697 -0.810634
79 2 -0.995462 1.52521 -0.848483
103 2 -0.61212 -0.0523094 0.360524
108 2 -2.56201 2.43635 0.759597
384 2 1.14077 0.814736 2.1772
117 1 0.323987 -1.65989 -1.48859
381 1 1.40143 -1.05238 1.22367
249 1 1.13779 2.43166 -1.54863
247 2 0.644979 0.984083 -0.842514
107 2 0.419584 2.29866 -0.774452
224 2 1.33343 -0.123991 -0.80267
78 1 -0.0372207 1.42779 0.777031
222 1 -0.345056 0.256399 2.77012
93 1 -1.59152 1.4111 0.559625
248 2 -0.382128 -3.12765 -1.48071
246 1 -1.28793 0.296793 -2.22685
244 2 -0.590093 -1.52548 0.989827
5 1 3.08882 -0.156947 2.14456
392 2 1.48251 1.86553 -2.50972
251 2 2.33515 -0.613796 1.00262
253 1 -1.18487 -1.0851 0.91687
111 2 -1.22921 2.2824 1.1758
255 2 -0.442763 -0.909051 -0.830234
228 2 3.07331 -1.02884 1.48676
82 1 -0.404115 -0.801435 1.06335
226 1 -0.184957 1.4763 -1.16621
86 1 2.59337 2.62695 0.458495
230 1 0.496917 -2.16269 0.0467816
250 1 0.975405 -1.6285 -0.26425
110 1 -0.653923 2.4008 -0.737231
84 2 2.93787 -1.21792 -0.395985
256 2 -0.485237 -1.84168 0.787081
252 2 0.149813 1.08002 -0.202052
106 1 0.159043 -1.02749 -0.537307
254 1 0.318733 0.0149197 -1.5953
116 2 -0.136622 2.20738 3.07693
237 1 -1.76102 0.948902 -0.38437
257 1 1.4415 0.664981 0.212986
115 2 -1.8786 -3.35588 -0.139064
259 2 -0.687294 3.09112 0.648441
232 2 1.29886 -1.90732 -4.63109
236 2 -0.262919 1.13506 -1.25113
90 1 -2.66657 -2.40305 -0.339157
234 1 0.674602 -0.91451 -1.98984
258 1 0.911701 0.0280791 0.236086
114 1 2.27703 0.337628 1.65397
88 2 1.09696 -0.538584 0.171665
140 2 1.68876 -2.6453 -1.23898
420 2 0.776373 -1.1591 1.86341
112 2 -0.507537 0.983302 1.96411
104 2 2.22587 1.40636 0.716363
262 1 0.511818 -1.16279 1.23919
243 2 -0.854011 -1.23708 1.86597
118 1 0.333202 -0.271076 -2.03081
364 2 0.577289 -2.48975 -0.725364
261 1 -1.27086 1.84506 0.507209
389 1 0.313717 0.245248 -1.54114
263 2 -1.01802 -1.23176 -2.47782
240 2 2.52107 0.304216 1.48492
94 1 2.13894 2.63733 1.39155
238 1 -0.532831 -1.39776 1.02005
405 1 1.25391 -1.64891 0.64647
286 1 1.43111 0.618467 -1.01965
145 1 -0.693245 -2.28071 -0.181635
265 1 -1.87621 -0.524466 -1.74778
23 2 -0.281533 -0.654441 -0.812762
119 2 -1.36578 2.16987 0.626735
124 2 0.456742 -2.89534 0.153363
264 2 0.709145 1.47439 -0.800661
113 1 -0.984043 -1.16386 0.26187
413 1 2.38359 0.666048 -0.533279
269 1 -0.446754 -1.10927 -2.15695
123 2 0.389038 -0.202261 0.740259
267 2 -0.481603 1.2153 -0.206365
388 2 0.841189 0.659954 1.28403
98 1 0.375679 2.01603 -0.660836
242 1 0.222299 -1.36563 2.00579
122 1 2.23802 0.177382 0.0883364
266 1 0.193445 1.17171 1.6593
271 2 2.69955 -1.50435 -0.118261
128 2 -0.823938 -0.665587 -1.35216
416 2 -1.1492 -1.22016 -1.50085
273 1 0.675408 -1.22189 -0.381195
127 2 0.608437 -2.01943 1.29907
275 2 -1.24927 -0.801826 -0.91199
272 2 -1.42793 -0.501875 -0.340009
102 1 -1.33178 -1.34352 -1.08048
126 1 0.350781 0.767698 -2.19758
270 1 0.358098 2.54033 -1.68283
141 1 -0.861387 -1.65229 -0.188397
429 1 0.428609 -0.317976 1.18322
75 2 -0.975651 -0.678816 0.245643
285 1 1.35951 1.62508 1.67999
163 2 -0.721912 -0.721995 0.73746
136 2 0.0747708 0.457443 0.261707
133 1 2.16314 -0.998604 -0.267989
131 2 4.23794 -5.01908 -0.993967
277 1 -0.240465 -0.554074 -1.47702
135 2 -0.22041 -0.235553 -0.326477
279 2 -0.019461 2.44062 -0.224406
276 2 0.195167 3.23229 0.938725
130 1 -1.11802 -0.721799 -0.664345
274 1 -0.0310048 0.138756 -1.93198
134 1 -0.886517 -1.01229 -0.233932
278 1 -1.46452 -0.413115 0.127251
421 1 -1.81539 1.32742 1.26123
95 2 1.05004 1.64394 0.072566
97 1 1.52855 -0.362774 0.0839622
260 2 1.54864 -0.676998 2.04272
142 1 2.14195 -3.30679 -0.392744
15 2 -0.156627 0.924879 1.44747
282 1 -0.728384 -0.0812556 0.230107
138 1 -1.10451 2.17386 0.192663
137 1 1.99507 0.616656 -1.40399
281 1 0.365957 3.56527 -1.34453
139 2 0.109883 -1.48485 -0.699826
283 2 0.676366 0.795903 0.0895501
280 2 -1.22658 -0.190976 0.0396586
284 2 -0.752365 0.265234 -0.203516
425 1 -2.7059 -1.64952 -1.87188
144 2 1.03499 0.839572 0.602641
288 2 0.627342 -2.61187 -1.16017
432 2 1.38888 0.673207 0.341069
143 2 -1.64582 2.93607 -2.34047
121 1 0.544912 0.533567 -0.713974
287 2 -0.364974 0.0292642 2.21599
409 1 0.685032 -2.6101 1.87604
428 2 0.530072 -0.345933 4.24779
3 2 -0.445323 -0.0803547 1.87754
120 2 -1.4985 -0.334833 -1.14768
289 1 0.896744 0.700072 -0.00314711
147 2 2.23784 0.437532 -1.75275
101 1 3.60108 1.19855 -1.23411
100 2 1.53462 -2.92512 -1.92504
125 1 0.613656 0.0142135 0.567886
417 1 1.68114 -0.583339 1.70033
1 1 -0.0158046 -1.89317 0.291151
73 1 -2.64564 -0.387459 -0.517995
533 1 -2.50755 0.402022 -1.65864
387 2 -0.538244 2.71886 -0.120002
508 2 0.621853 1.45308 -2.22574
362 1 -2.17561 -0.698833 -0.0930545
506 1 0.782585 -0.844191 2.12224
535 2 -1.09566 0.562064 1.12998
528 2 0.47576 0.742269 0.65447
396 2 -1.84927 1.39554 -1.54016
505 1 0.964628 0.502396 0.611999
363 2 0.951033 0.61859 1.12156
376 2 -0.163781 -1.77229 -0.738012
365 1 1.92283 1.98265 -0.0806529
523 2 1.36503 1.8434 1.86151
585 1 -1.68025 -2.31271 1.35378
385 1 2.0273 -1.68695 1.93094
453 1 -1.45488 -0.652158 -0.889925
513 1 -0.353157 2.47374 2.25802
393 1 -0.0695749 -0.635847 0.163844
537 1 0.550035 0.368398 1.99037
391 2 -0.557902 0.708164 0.518359
395 2 -0.44691 -2.98956 1.92955
539 2 0.250115 1.55141 0.388725
512 2 -1.10259 -1.22436 -0.641303
366 1 -1.63131 0.462893 -0.0410242
510 1 -2.056 1.79219 0.527692
511 2 -2.89429 0.560315 -0.376291
390 1 1.07232 -2.2902 -2.39439
412 2 1.30972 -1.69112 -1.13489
419 2 5.16873 -0.653106 3.3726
307 2 0.173974 -0.558718 1.22716
408 2 1.66309 -1.65504 4.10879
541 1 1.16534 0.425865 -1.34006
399 2 -0.802271 1.54193 -0.22468
543 2 2.25539 1.48486 0.653851
516 2 -0.568828 0.468734 -1.63629
370 1 0.221557 2.48307 2.13966
514 1 -2.87986 3.09231 0.784888
374 1 -0.775237 -1.10517 0.586279
518 1 1.59495 1.6183 -0.783473
660 2 -1.33353 -0.0780611 -0.779342
540 2 1.60279 1.21209 -0.0573596
394 1 0.193665 -0.490393 -0.665864
538 1 -2.01463 0.31176 1.13919
542 1 0.185087 -0.503139 -0.625739
372 2 0.558017 -0.984825 1.32805
397 1 0.837827 2.71973 3.58963
507 2 -0.509566 -1.50098 1.57767
657 1 1.43486 2.75767 1.1578
545 1 3.32189 -0.889385 -1.92239
664 2 0.54384 -2.74098 1.51747
403 2 1.09484 -0.581819 -1.0568
547 2 0.98219 2.56444 -1.46535
520 2 1.19685 2.48865 -0.611569
378 1 0.446248 0.280791 -1.39558
522 1 -0.686352 0.932134 -0.1892
548 2 -0.497727 0.937195 -1.11489
402 1 -1.49634 0.565914 -0.294908
544 2 -1.55157 -0.144668 1.75032
576 2 -1.83779 1.90197 1.63475
529 1 2.0234 -0.471282 2.30535
531 2 -0.175557 -0.133596 -0.417937
380 2 -0.733473 0.655846 3.0925
524 2 -0.646879 -0.100847 -0.927925
549 1 2.34637 0.300836 -0.0521602
407 2 -1.18163 -1.30548 -1.24142
551 2 -1.10538 -3.43911 -0.481207
382 1 1.16465 -1.45513 -0.77689
526 1 -4.73251 -0.933962 1.30918
383 2 0.252908 1.12965 -0.882243
406 1 2.12396 -0.326848 -0.0935782
673 1 -1.49169 -0.324884 0.656497
430 1 -0.250178 -0.796475 0.0519664
656 2 -1.80622 -1.08089 0.751313
437 1 1.5847 1.13701 -0.700701
557 1 -1.24377 -1.472 0.425145
411 2 -2.4452 -2.58284 -0.200827
555 2 -0.067113 0.4165 3.62698
532 2 0.61426 -0.780702 -2.1904
556 2 -0.103305 0.204824 3.49059
386 1 0.0729386 -1.83739 0.73281
530 1 -1.2423 -2.84121 -1.68794
410 1 -0.918524 0.794901 -0.44827
554 1 0.84674 -0.974363 0.938516
717 1 0.506625 1.54744 -1.26369
552 2 0.9767 -0.215146 -0.825528
536 2 -1.13371 -0.000125453 2.88536
577 1 -1.44773 -2.36595 -0.717018
693 1 0.459351 0.33965 0.629619
441 1 1.70663 -0.793212 -0.224344
299 2 -1.57287 0.465641 1.13063
561 1 -1.58121 -0.0592221 -0.25135
415 2 -0.337394 -0.597213 -2.32548
559 2 -0.538156 0.359447 -0.536771
560 2 1.64739 0.272597 0.214461
534 1 0.0388214 -0.630675 -0.614788
414 1 -0.45174 -1.28755 -0.500552
558 1 -0.501012 -1.31857 0.937408
443 2 0.127938 1.79617 0.991025
574 1 0.424145 1.57762 1.89239
398 1 -0.6726 1.2757 0.415723
295 2 -0.706894 -1.66211 -1.86628
447 2 -1.26124 -2.17176 -0.910694
563 2 1.20111 0.43916 -2.01179
565 1 1.5796 1.23438 0.473523
423 2 2.13304 2.01803 -1.89512
567 2 -0.64397 -0.76461 -0.410742
564 2 1.69229 -0.101606 -3.65731
418 1 0.00346306 0.312333 0.437065
562 1 -0.174296 0.0234812 0.70181
422 1 -2.15077 -1.02098 0.951358
566 1 -0.644742 -0.471231 1.5364
445 1 -1.10101 0.0298644 -0.425292
708 2 -0.935506 0.0334191 1.80468
680 2 -2.63804 5.36441 -0.207904
550 1 1.43989 0.442477 -0.589508
546 1 1.83219 2.30709 -0.386813
435 2 1.58818 -0.761094 0.574244
692 2 -1.53521 0.594046 0.91275
712 2 0.444157 -1.04457 1.36597
449 1 -2.52147 -0.238185 -0.821779
713 1 -0.00597169 1.95438 0.499413
572 2 3.31679 0.635431 -1.30403
570 1 0.070619 -1.71426 0.673126
426 1 -0.0936145 0.925762 -0.573512
569 1 0.0291879 -1.36225 -0.788578
427 2 0.92991 -0.391236 -0.33749
571 2 -0.282192 0.772735 -0.361804
568 2 1.53572 1.21493 0.611346
720 2 -0.858755 -1.86538 -0.435461
433 1 1.75294 1.45668 2.44375
696 2 -1.10802 -1.24331 -0.554924
597 1 -3.17671 1.20628 -0.235495
573 1 -4.44743 1.2891 -1.214
431 2 -0.053432 2.58473 0.325194
575 2 0.790977 0.0983175 0.203961
311 2 0.375295 0.326927 1.31542
553 1 -0.749751 0.43912 -0.634074
704 2 -0.258261 1.56736 0.899546
716 2 -1.03806 1.43005 0.0805011
685 1 -1.90725 1.37325 -0.971881
581 1 -2.506 -2.78889 -1.75292
681 1 0.46198 1.35859 0.443796
684 2 -0.525962 0.962276 -3.45457
709 1 -0.0105965 -1.5716 0.655313
368 2 -0.578498 -0.790945 1.95105
401 1 -0.0540719 0.309183 0.832242
404 2 -1.29896 -0.801968 2.43974
400 2 1.50367 -0.369463 3.54898
293 1 0.433508 0.229245 -1.20116
424 2 -1.40302 0.418446 2.01469
817 1 -0.65294 1.28324 0.795798
821 1 -0.128329 -1.44295 0.972553
675 2 2.0038 -1.14081 2.68389
796 2 0.196362 0.443635 -1.45715
650 1 1.06463 -0.117453 -2.12923
794 1 1.49164 -0.346979 -0.678317
823 2 -0.111135 -1.25669 1.27269
860 2 1.99341 -1.52454 -2.85693
655 2 -1.20116 0.935685 -0.748015
793 1 2.1948 -1.10945 1.22173
797 1 -0.151346 1.31538 0.765187
76 2 0.459245 -1.38506 -2.05862
672 2 0.712384 2.07859 1.73614
663 2 -1.90562 1.31842 0.471694
653 1 -0.715981 -0.210886 2.74234
659 2 -0.152488 0.550653 0.0759997
721 1 1.85559 1.8346 -0.181661
863 2 0.940403 -2.67366 -0.83712
825 1 1.4988 0.119547 -0.760464
679 2 -0.867931 2.22562 1.19453
683 2 2.20879 -0.0256955 0.291365
800 2 -1.72189 -1.49873 1.1194
654 1 0.822891 -1.54842 -0.440228
798 1 -0.893056 2.80635 0.550907
801 1 0.0688887 -0.16979 0.755691
80 2 1.4303 0.986637 -1.03723
81 1 0.706161 -0.996531 0.846909
725 1 2.46687 0.906496 0.654422
688 2 1.70577 -0.818884 -0.861269
807 2 -1.10626 -1.79967 -1.0863
827 2 0.939652 1.37105 2.69253
829 1 0.285218 0.424353 4.09622
687 2 1.95647 -0.672489 1.56083
831 2 -0.931277 0.22181 -0.785501
804 2 -1.84763 -0.0998375 -2.31943
658 1 0.590636 1.39905 0.613071
802 1 -1.91969 -0.969529 -1.07561
662 1 -0.752798 0.034018 -0.902711
806 1 0.257222 1.44824 -0.570058
682 1 0.55053 0.675211 0.34069
686 1 0.903459 -1.14104 2.1394
808 2 -0.858281 0.462382 1.14298
828 2 -1.34501 0.907026 -1.42338
701 1 0.715856 0.475231 1.20201
689 1 0.0626809 1.10127 1.1458
811 2 0.59184 -2.60245 -0.258049
833 1 2.93276 1.44882 0.10746
691 2 -2.55508 -2.31633 -1.93305
835 2 -0.572375 -0.779538 -0.772836
812 2 2.72027 -1.11387 -0.28329
666 1 0.465 0.686704 1.36693
810 1 -0.802158 2.17422 -0.717451
668 2 0.750088 0.454868 1.51344
832 2 -0.319455 0.638603 0.972089
819 2 -0.687347 0.0168846 -2.34181
96 2 -3.15746 1.73879 0.0729421
838 1 0.70054 -0.0362542 -2.60872
694 1 1.14666 -0.280996 1.18554
837 1 2.8373 -0.304541 -1.36029
695 2 0.970981 3.77311 -0.500287
839 2 0.569977 -2.45865 0.345559
816 2 -2.17326 -1.92275 1.5121
670 1 0.0534666 0.877275 -0.848734
814 1 1.26294 -3.37794 0.298069
671 2 1.23696 1.00144 -2.65084
649 1 1.62636 -0.439614 0.635459
815 2 -0.668766 -0.503816 0.324737
861 1 0.257856 1.65584 -0.0460263
862 1 1.52075 0.899324 0.586762
840 2 1.03301 0.0721518 0.222166
579 2 -0.692112 0.134988 -1.13483
719 2 0.634478 0.320608 2.26665
845 1 -1.72268 2.18514 0.420036
699 2 -0.951658 -1.75737 -1.3998
843 2 1.64445 1.73387 -1.38459
820 2 -1.71247 -1.23163 -0.745237
844 2 -0.794397 -0.951859 -2.14042
674 1 0.984913 3.31962 0.492011
818 1 -1.91347 2.80255 -0.510307
698 1 -0.587266 -1.92362 0.330301
842 1 1.53497 0.284982 2.18241
700 2 -1.54339 -1.72119 -1.10663
847 2 2.24049 1.80242 1.07413
718 1 -1.92359 -0.262838 0.982955
743 2 -0.804367 -0.993032 -0.789434
703 2 -0.710163 2.03046 -0.325473
849 1 0.453699 -0.517742 -3.10646
707 2 3.167 -1.80009 2.83768
824 2 -0.127699 -0.074774 1.6558
848 2 3.77161 -1.06325 -0.318953
678 1 -1.16947 -2.26992 -1.1181
822 1 -0.797679 0.488151 0.871713
702 1 -1.71653 0.456907 -0.383969
846 1 -1.25497 1.38235 -0.288037
851 2 -1.80143 2.10472 0.389475
841 1 -1.16092 -3.16445 -0.261512
809 1 0.6382 2.43707 0.661065
583 2 0.595843 -2.12687 0.199279
733 1 1.03306 1.13914 -1.89796
830 1 -0.288096 -0.409874 -1.41604
132 2 1.38995 -0.0848174 -2.39654
853 1 -0.270326 0.646517 0.911915
711 2 1.51996 1.49763 0.0993758
855 2 2.14559 0.522353 0.314196
852 2 3.66129 -0.0546377 -0.591364
826 1 -0.374508 0.799076 -1.93727
706 1 -1.71482 1.07498 -1.28759
850 1 -1.62929 -1.45408 -1.16988
710 1 -0.94112 -0.993193 2.54334
854 1 0.328278 0.717853 -1.28517
836 2 -0.802673 0.193393 -1.50482
599 2 -1.38344 1.20118 0.509083
834 1 1.16469 -0.694293 -0.775962
737 1 -2.77141 0.371177 0.0690647
714 1 -0.230402 -0.947202 3.22841
858 1 0.113096 -1.37225 0.979132
690 1 -0.286386 0.776931 0.37117
856 2 1.79985 -1.38196 -2.2738
857 1 -2.2354 -2.25837 -2.96794
715 2 -1.36062 1.21642 1.98958
859 2 2.5771 -0.30739 0.246681
92 2 2.40555 0.660645 -2.07953
729 1 -0.694372 0.486221 -0.716247
723 2 -0.498548 0.1884 1.53046
795 2 0.269459 1.58688 -1.59581
697 1 1.31015 -0.899185 1.48809
676 2 -0.601471 1.50615 1.16166
109 1 -0.224053 4.19585 -1.47247
105 1 1.13669 -2.26457 -0.937362
129 1 0.0219899 -0.86272 -3.15035
527 2 -0.498716 0.00654581 2.75851
677 1 0.892768 -0.625906 -0.781938
705 1 -3.48392 1.33491 -0.208729
652 2 -0.700374 0.819338 2.16672
