ITEM: TIMESTEP
2500
ITEM: NUMBER OF ATOMS
864
ITEM: BOX BOUNDS pp pp pp
0.0000000000000000e+00 3.2219999999999999e+01
0.0000000000000000e+00 3.2219999999999999e+01
0.0000000000000000e+00 3.2219999999999999e+01
ITEM: ATOMS id type vx vy vz
173 1 0.634158 -0.731025 -0.677233
27 2 0.419655 0.772297 -2.5932
148 2 -1.86323 -0.289564 -2.85652
2 1 3.14328 -2.15283 -0.803844
146 1 2.15577 0.963031 -0.805166
48 2 -0.317612 0.98215 -0.884413
316 2 -0.691533 -1.50772 0.129151
168 2 -3.49869 -1.94564 -2.27865
292 2 -2.8748 0.110398 -1.93317
170 1 1.77417 -4.20281 1.93503
65 1 0.668867 -2.71346 -0.963357
26 1 -1.14153 1.95774 0.759917
25 1 -1.13569 2.68059 -0.0733733
72 2 -1.44199 -0.581181 -0.534448
165 1 -2.11807 -2.21608 2.08087
300 2 -1.3058 1.57361 4.40893
145 1 -1.92404 -1.01744 0.149072
288 2 -0.506756 -5.38911 -2.66056
177 1 -0.467663 -0.153191 0.847806
152 2 -4.73443 -4.58654 0.260831
6 1 -0.768162 0.803157 -2.03763
150 1 0.699993 -3.84306 0.531954
11 2 -0.682742 -2.83087 -4.04755
179 2 -1.45827 -1.79431 -1.06639
31 2 -2.50599 -1.21216 0.141065
175 2 -2.47124 -0.765597 1.75041
424 2 -1.39202 2.18626 -3.81726
8 2 0.599112 3.01264 -0.623824
268 2 -4.783 -2.23737 1.45866
21 1 -2.48385 -0.767039 -0.860723
320 2 -2.19798 -4.44356 -3.20701
156 2 3.20716 -2.15461 -3.94362
324 2 1.26489 -1.24355 0.924683
181 1 0.87809 -1.80819 3.66648
15 2 1.07759 1.85326 -1.08014
10 1 -0.242283 -0.222453 -1.75409
154 1 -3.51781 2.79436 -0.998698
14 1 -1.24497 -2.87377 -1.93411
158 1 -1.14695 2.04798 -2.78899
178 1 -3.34206 -1.66097 1.65098
13 1 0.576884 0.451646 -0.245128
39 2 1.92789 -4.05549 0.694535
160 2 3.37473 2.94957 0.399954
153 1 0.234094 -3.20968 -1.02569
73 1 -0.447913 1.80372 1.65827
161 1 -0.485924 -0.137048 3.06131
24 2 -1.52885 1.37623 -5.1053
183 2 -0.634959 0.690459 -2.9184
305 1 2.4981 -0.409041 -3.63874
185 1 0.304573 0.662314 0.749646
187 2 2.14122 -2.05894 -0.828509
164 2 -0.387789 -0.446717 1.78383
18 1 0.19283 -2.60348 3.50839
162 1 -0.398067 1.47483 -3.11385
23 2 -1.97333 -2.99858 -4.1683
163 2 1.3235 -1.02201 -0.515543
228 2 5.02324 -2.3788 -5.93012
93 1 5.21622 3.29608 -0.342206
167 2 -0.234283 1.30558 2.34002
155 2 -2.89574 -0.446699 1.72213
195 2 -2.27277 2.70089 -4.06846
169 1 3.25491 -1.7186 3.30533
189 1 0.0355748 -2.48059 3.25219
47 2 3.08317 -2.77769 -3.00853
191 2 0.550488 3.11499 -0.723622
22 1 -0.484939 -0.13535 -1.03635
166 1 0.441712 -1.58326 -0.71416
237 1 -0.651178 2.82267 -0.467091
89 1 -0.300706 1.75612 0.584
190 1 3.23137 1.59756 2.97748
44 2 -0.373871 0.329467 1.63216
71 2 -1.7425 1.22427 -1.19283
52 2 -0.0450578 2.44756 -0.81936
172 2 -3.49579 2.79648 3.20887
333 1 -2.05329 4.20053 0.127957
171 2 -0.116555 -0.272322 -1.02518
197 1 -0.162177 0.0526538 -2.32068
51 2 1.16054 -0.107068 4.64444
50 1 -1.53442 0.971673 1.57019
194 1 -0.261556 -0.955603 -0.979248
55 2 2.34507 1.2923 0.34696
193 1 1.83645 -4.46617 2.22141
41 1 -1.92711 2.35106 -0.290287
45 1 -1.11018 -2.22391 0.45698
221 1 0.727285 1.03938 2.72384
217 1 -3.74824 -1.33712 0.788332
1 1 3.0695 -3.55462 -1.37031
335 2 -1.57502 2.55055 -0.050655
176 2 -1.32595 -4.22411 0.244378
196 2 1.37066 -0.3707 2.1637
367 2 1.02039 0.994098 -2.02101
340 2 6.21033 0.592774 -1.72322
201 1 -0.122911 -0.092538 -3.22162
203 2 -3.62175 1.08181 3.5652
200 2 -1.42686 -1.96064 2.1707
30 1 -0.85819 3.3818 -0.483532
174 1 -2.17961 -3.48113 1.57367
54 1 0.104376 3.17098 -3.53944
198 1 0.951436 0.847784 1.59409
216 2 3.05813 0.00780315 3.24258
180 2 1.62493 -0.534451 -3.52309
75 2 2.11532 0.889108 -1.71037
348 2 -0.238283 3.93846 -1.89143
17 1 -0.253355 -2.07463 0.772752
59 2 -1.30291 0.669838 1.19861
205 1 2.18698 -1.73311 -2.59943
63 2 -3.16694 3.98611 3.67495
204 2 0.445036 -0.644516 -2.48473
34 1 3.03512 1.78067 4.72582
58 1 -1.01774 0.762189 -1.15141
202 1 -1.40496 -1.32952 1.2879
38 1 0.926982 1.77607 0.964899
182 1 -0.25008 -2.76733 -0.493976
62 1 3.37808 -1.03407 0.882377
206 1 3.04721 -5.256 0.442252
211 2 3.39808 -0.541148 -1.75404
56 2 3.30215 -1.75736 3.19423
213 1 3.43547 -5.74795 3.19175
791 2 1.90515 -1.22039 0.487638
64 2 0.511979 3.96535 -1.91021
70 1 3.42388 -1.32473 -3.93914
233 1 3.24082 -0.45998 0.968868
328 2 2.78069 3.21228 2.72205
43 2 2.98303 -2.98536 -2.9249
212 2 2.81206 -2.27029 -0.711708
188 2 0.6672 -3.06117 0.493974
42 1 -0.815968 1.97368 0.752826
186 1 -0.478098 0.157862 -0.0127676
209 1 -0.944657 2.68781 -0.852866
67 2 0.963325 4.20546 -1.48505
210 1 -2.82003 -0.364185 1.49273
184 2 -3.72136 -0.732395 -4.25583
208 2 0.653968 1.22719 -4.58131
66 1 -2.04165 -1.0099 0.311913
214 1 -1.46931 -3.85511 -1.31753
20 2 -5.56183 2.46198 3.12271
46 1 -1.38831 -0.892649 -0.21278
192 2 -0.985854 4.05593 -2.8176
220 2 -1.75228 0.431459 -1.49872
3 2 -1.70851 -4.29906 -3.36508
341 1 3.19752 -3.08717 2.36676
147 2 0.184186 4.29235 -0.30209
349 1 -2.07859 -0.907481 -0.731459
361 1 1.48074 4.96262 -1.84671
239 2 1.54703 0.56203 -2.24705
37 1 1.43637 3.53477 -1.54231
29 1 -3.73955 0.720427 0.439249
461 1 -1.69503 -1.22668 3.58045
351 2 -0.156466 0.0595185 0.366807
459 2 -0.470215 -2.81068 5.668
436 2 -3.30205 -1.0684 -0.828045
290 1 2.15618 3.58308 0.681087
434 1 -3.22754 -1.05208 -1.15232
319 2 2.58905 1.87048 4.49056
463 2 -0.343411 -1.25026 4.71989
199 2 -1.13565 -0.929251 -1.24305
296 2 1.83096 -0.26429 -1.73287
591 2 2.45827 2.41916 -0.329837
339 2 0.549628 1.23866 2.82662
433 1 2.14536 1.34069 0.586801
227 2 1.69969 1.45537 -3.93885
325 1 -0.411761 3.20131 2.20218
509 1 0.989434 0.835105 -1.2297
465 1 -1.2711 1.69603 -2.33461
467 2 1.53692 1.23116 2.47253
313 1 -1.50866 -1.42532 2.39291
294 1 -3.71138 2.21763 -3.73391
438 1 -2.67517 0.852328 0.345663
464 2 4.13873 0.0682906 3.65329
462 1 -0.470797 -4.14589 0.407324
608 2 -2.5543 -3.06318 2.48032
444 2 2.2665 -0.172215 -1.4676
620 2 0.381963 -3.42945 -0.0255823
460 2 -1.6489 -0.643123 3.30519
318 1 1.88757 -0.811766 -2.25132
672 2 2.21889 2.92743 4.20798
321 1 -0.743113 2.95941 -1.66381
440 2 -3.31643 1.96515 3.34678
323 2 1.52909 0.398693 0.492537
469 1 -0.0350607 4.61639 1.00479
327 2 -1.44957 -1.8051 1.05155
298 1 2.79896 -0.0348884 6.13502
442 1 2.60801 0.256664 -2.74719
302 1 -1.05119 -4.01542 2.02389
446 1 2.61558 -0.971211 0.824233
448 2 -1.94706 -2.41813 -4.54445
468 2 -2.39896 -1.83713 -0.437186
291 2 0.0351904 1.06211 -3.73597
322 1 -1.14832 -2.77013 -0.105054
491 2 0.820801 -0.133083 -1.70325
466 1 -1.61602 -1.67333 -1.09
326 1 0.173881 0.0773406 3.66412
470 1 0.960998 -3.77308 2.28073
358 1 0.111774 -2.3692 3.48599
483 2 -1.46474 0.26657 1.04464
481 1 1.57836 1.75555 -0.693631
337 1 -1.94294 -1.33373 1.81214
471 2 0.704121 -1.41537 2.19986
473 1 -2.34382 2.10625 -1.70018
475 2 -2.5696 2.45579 1.8789
306 1 1.73291 -3.39152 0.139728
450 1 -2.58762 1.9502 -1.52168
331 2 -1.58465 2.242 2.88662
474 1 -1.64634 4.1841 2.29948
330 1 2.60907 -3.54617 -0.338518
472 2 5.74328 -5.6868 -0.674341
572 2 2.34783 2.37209 -4.2912
336 2 -4.1247 1.1058 2.8889
457 1 2.92309 1.02215 -2.65174
593 1 0.989831 0.70636 -2.44592
479 2 3.04925 -2.15166 -1.36888
478 1 -1.08666 0.55978 -3.08627
308 2 -0.906331 6.4893 4.44202
477 1 -3.72007 2.77725 3.66317
456 2 0.271295 1.38241 -0.564983
310 1 2.13393 -0.33373 0.338315
454 1 -2.62141 1.59539 1.50894
315 2 4.13129 -2.16142 1.04845
215 2 3.6716 -1.31723 -1.21403
453 1 -1.06593 -2.72668 0.02744
505 1 1.95884 3.36858 -0.664718
334 1 1.53725 3.46864 1.56171
447 2 -2.07498 -1.24322 0.594389
503 2 -2.49282 -1.84182 -1.42379
485 1 -3.0101 2.85643 -1.20449
484 2 0.0057446 1.47353 2.98489
314 1 1.67896 0.406537 2.89241
458 1 -2.37627 -0.452339 0.437393
338 1 -3.74924 -2.24176 -1.88261
482 1 -1.27756 2.88724 1.57056
343 2 1.47859 0.727885 -1.54763
487 2 2.89328 3.66101 -0.531345
443 2 -1.46629 2.43799 1.11518
303 2 -5.35662 -1.13611 -0.875954
345 1 -0.184061 -0.290415 0.551062
489 1 1.75987 -2.07878 -2.74837
344 2 0.482175 -1.12061 3.70165
488 2 -0.376193 1.47417 -1.14699
342 1 1.69897 -1.29406 -1.30931
486 1 0.460611 2.62564 -0.404112
501 1 -1.57862 -0.26753 3.82113
525 1 1.25961 1.05392 2.87886
513 1 -4.70918 1.63625 0.659405
576 2 -3.27362 -1.99789 1.90487
357 1 -1.79171 -0.97104 -1.33973
317 1 2.40882 0.902515 -0.642578
347 2 1.09415 -1.13951 -2.22967
493 1 3.20008 2.41053 -2.21527
496 2 -0.685011 -2.08988 -1.91051
492 2 1.05312 2.09675 1.95896
346 1 -0.350032 2.5471 1.57376
490 1 0.895729 3.51075 2.33082
350 1 3.85211 -1.44409 -1.24874
494 1 -1.65688 -1.82687 -0.964939
495 2 -0.573512 1.90011 -3.44887
616 2 0.98721 -3.42337 0.817948
480 2 -4.86755 2.5159 0.988308
309 1 2.42523 -2.23343 1.97589
359 2 -1.37359 -1.24779 -0.424876
499 2 -0.502238 1.81646 1.68405
612 2 -1.2719 -0.316193 1.73292
664 2 0.00887934 -3.64205 -1.76287
498 1 -2.0544 2.92915 3.42396
354 1 -1.79316 0.15831 -3.25063
476 2 1.27359 -0.233946 6.01278
497 1 0.515084 1.75781 -1.82061
352 2 -0.782384 1.26317 -0.618637
445 1 2.74126 -3.5017 -1.77864
645 1 0.922864 5.06119 0.573164
631 2 -4.51769 1.86557 0.576798
527 2 -1.52325 -0.184371 0.324975
355 2 -0.0711159 -2.61705 3.45131
500 2 -0.558142 2.08988 -5.208
624 2 3.73446 8.76008 -0.494338
502 1 -2.45815 0.0941395 -0.349338
504 2 -5.62651 -2.21613 -3.28905
601 1 -2.42291 0.627792 1.46841
301 1 2.24033 -3.15798 -5.46402
332 2 2.57408 -3.86826 -1.53843
600 2 -1.04487 -2.59438 -1.4409
231 2 6.76476 3.44658 -1.75479
653 1 2.6697 3.94129 -1.37845
621 1 -0.0792292 0.714288 -1.14131
515 2 -0.531415 3.92719 -2.84053
592 2 6.65731 -3.80091 1.56655
629 1 -1.99463 0.496296 0.612147
596 2 1.82577 3.13698 -1.53269
605 1 3.75914 1.52599 -1.66696
579 2 3.99265 4.96934 -3.05446
353 1 -0.415621 -2.30739 3.07475
329 1 2.96264 1.15466 4.1766
360 2 2.2142 -3.31092 1.62362
289 1 -1.54843 2.19022 1.30253
356 2 2.16147 -1.82325 2.20337
749 1 -1.16916 -1.57094 0.781134
724 2 2.15122 -2.00714 -3.31436
578 1 3.45125 3.60198 -2.31417
722 1 -2.16304 1.00366 -2.99195
751 2 -0.335792 0.303389 1.34855
748 2 -0.970772 -2.42213 1.30895
602 1 -1.66774 1.90431 -1.05976
721 1 -2.42287 4.50233 -2.59978
745 1 0.716445 1.59681 3.36176
746 1 -2.34581 -0.775822 4.33411
741 1 -0.503579 -0.315844 -2.83745
588 2 2.21429 -0.559021 3.08801
587 2 3.16681 -2.21291 1.99624
753 1 2.93825 3.46592 0.374785
607 2 1.30015 -0.363661 -1.59134
728 2 1.9941 -1.91883 -0.60024
582 1 -4.5928 -0.1931 -2.27141
726 1 1.0419 3.51592 0.786814
754 1 2.41275 1.4354 1.64492
96 2 -1.13458 -4.33933 0.388622
584 2 1.07617 0.846646 2.99922
648 2 0.723018 2.08759 -1.58193
35 2 3.17811 -13.036 5.6855
633 1 -0.479298 -0.211565 0.0330766
613 1 1.06972 -5.9522 -2.82262
625 1 -1.90241 4.0119 0.981069
611 2 2.03621 2.88652 -1.82677
757 1 -0.663411 -1.5696 -3.8111
32 2 0.424322 0.144747 -3.35382
732 2 3.10419 3.34436 -2.42134
586 1 4.56915 -1.24532 6.19541
730 1 -1.99449 -1.53152 -3.64752
590 1 -0.220752 -3.99192 0.0267564
734 1 1.82045 0.174883 -0.0268973
36 2 0.141926 2.97365 0.894482
787 2 0.165405 -1.33903 4.02278
12 2 2.84188 0.881422 3.30657
790 1 2.76091 0.336706 -1.40318
809 1 4.28082 4.41365 -0.0383855
759 2 1.2734 3.85654 0.367875
589 1 -2.90142 1.2171 2.75907
792 2 2.09183 -3.53362 -4.52454
615 2 -2.0392 -5.73944 0.437462
761 1 1.72956 -1.3127 -1.49054
595 2 0.687768 0.0608448 -1.15491
619 2 -1.20636 3.43284 6.13002
763 2 4.51797 3.9242 -0.679049
740 2 0.281269 -0.134677 0.522516
594 1 -2.42979 -0.917851 0.396342
738 1 0.339643 0.628988 -6.62069
16 2 -2.09165 1.08928 3.03898
57 1 -0.00518815 -3.97516 -0.142306
797 1 1.0217 0.223041 1.09392
580 2 -2.00784 1.44268 -1.69544
40 2 -3.92347 -1.60336 1.66903
643 2 -0.0498125 -4.74064 -2.79033
603 2 -5.64358 2.08266 5.52687
599 2 -4.6229 2.99255 0.792104
766 1 -0.494036 2.70918 1.87318
768 2 0.818269 -4.80185 -5.78392
723 2 -0.253928 -1.55778 6.51287
765 1 2.2139 -0.353967 -3.03614
623 2 -2.05544 -1.16639 -0.527433
767 2 -1.4705 -0.0327108 0.790936
744 2 4.93099 -0.537381 -2.00277
598 1 0.824979 -2.71454 3.43168
742 1 2.0281 -2.03219 -5.4653
33 1 -2.54018 -0.307382 -1.28883
764 2 -0.134351 -1.10327 -2.45049
28 2 1.8865 -1.09609 -0.696539
628 2 -0.716453 4.43788 4.68621
793 1 -1.94674 3.89966 -1.12768
646 1 -2.66514 2.69242 1.27635
773 1 1.22659 -0.428175 1.04842
627 2 -2.72172 -3.05235 1.35671
626 1 -2.52323 -0.717217 2.09231
770 1 2.1526 -0.342423 -5.48071
60 2 -0.734091 -1.03632 2.0114
771 2 -0.792078 1.88495 -0.105112
604 2 -0.337723 -1.24635 -0.726324
785 1 -0.716226 -1.81303 -0.890599
140 2 0.370844 -1.38193 -0.879203
769 1 -1.68868 -0.225653 -0.570103
637 1 -1.27128 -0.412675 0.360035
755 2 1.83452 -0.0700493 2.83735
752 2 1.90006 -2.03603 -1.64476
606 1 -6.27276 -1.01454 3.37082
750 1 3.28384 -0.723157 -3.28872
776 2 -4.34666 1.16143 -2.62112
775 2 2.50955 0.146813 0.789475
777 1 0.0534452 -3.37454 2.07488
779 2 3.73903 -0.0999391 2.20566
630 1 3.96205 -3.46917 -0.624729
774 1 2.43098 -1.92332 -0.45712
756 2 0.203638 -3.51262 -0.379348
642 1 -2.07026 -1.68617 6.07654
83 2 -2.78476 -1.214 0.178233
640 2 0.211752 0.384033 -4.0754
644 2 0.801648 -1.24208 1.32044
622 1 0.324505 -0.612708 2.32125
663 2 -2.60746 -1.70596 2.12386
610 1 -1.33712 -0.613218 1.08945
614 1 4.17927 -2.849 -0.512539
758 1 -0.0325755 0.457656 3.95206
781 1 -0.212966 2.28622 1.02597
639 2 1.53138 1.07256 -0.233524
783 2 -2.63011 0.546408 -2.49377
634 1 -0.641732 -2.51714 -1.68914
778 1 0.390169 -4.23244 2.43394
638 1 -0.0137473 -0.70257 2.35636
782 1 -0.0537884 -0.00746272 0.104546
784 2 -1.59092 3.92095 -1.8249
647 2 -0.430806 2.97861 -0.55293
780 2 1.6254 2.48098 0.632868
61 1 0.219644 2.32036 -5.8315
772 2 0.514857 -0.169007 0.624964
788 2 -5.02758 0.71434 2.81788
577 1 -1.17033 0.354693 -3.33518
786 1 -2.44988 -2.17998 -0.983695
727 2 -2.04758 1.33697 -1.61805
760 2 -3.552 -0.18565 -2.58625
762 1 4.35493 1.05103 0.265673
618 1 -0.467857 1.64631 -1.38109
789 1 0.446295 1.65037 0.386711
671 2 -3.21969 1.55003 2.48099
68 2 -0.120415 2.57046 -1.39771
807 2 -2.62722 0.885356 0.900616
53 1 0.476434 -1.0389 1.14287
49 1 1.96766 -0.191365 0.700167
69 1 2.99242 -1.62532 1.12407
585 1 -3.03136 -5.51168 -4.23717
635 2 0.901942 -0.287614 4.27357
632 2 1.74276 0.491871 3.48649
617 1 -5.40431 3.16657 -1.00795
641 1 1.73488 0.958997 -0.784741
609 1 -1.29116 2.80637 0.0999712
245 1 0.0749292 -4.61042 -2.03769
99 2 3.23191 1.60752 0.218243
137 1 -0.54252 -0.300876 -0.934129
74 1 3.13051 -4.4062 1.8761
218 1 -0.40213 1.13662 -3.32884
79 2 -0.291518 4.98821 -1.3793
387 2 0.879417 -0.341898 1.87342
98 1 3.19677 2.59833 1.17179
242 1 -3.55764 1.1952 -0.840953
373 1 0.0212991 -0.460742 0.853069
244 2 3.19042 -0.70715 -0.645557
117 1 1.8238 -0.391294 -1.93432
377 1 1.93547 -3.14496 0.854139
207 2 1.73902 2.55722 2.2028
249 1 2.08601 -0.453478 1.99407
247 2 -1.25592 -5.36861 0.907346
107 2 1.82204 -0.0964508 -1.62023
224 2 -2.23943 3.59425 4.1358
78 1 -0.960815 3.45057 -2.9009
222 1 -0.632515 -2.76417 -1.51586
223 2 1.29925 -1.08865 -1.17555
251 2 0.765629 3.39829 -0.0392712
425 1 -0.0203759 1.25155 0.330182
225 1 1.42975 -2.50201 2.54897
102 1 -4.62349 -1.88851 -1.10739
236 2 -0.389747 1.72355 0.760122
108 2 0.449151 4.24911 5.72718
253 1 -1.1827 -2.62108 3.1852
111 2 -0.722192 0.945933 -4.64499
255 2 -2.60153 2.96147 0.59294
82 1 0.0481496 1.88406 -2.34562
226 1 -3.61543 1.78626 -1.74053
86 1 1.32335 1.04079 -1.04157
230 1 1.71482 -3.49834 -1.16097
405 1 3.2649 4.41156 2.08087
376 2 -5.16873 -3.40838 -5.30855
135 2 0.792145 -3.11832 1.2888
106 1 3.08843 -3.14578 -1.84297
110 1 2.01232 1.47973 -4.63851
254 1 -0.777151 -0.318222 -1.02307
112 2 -2.52512 0.219895 0.0994737
116 2 -2.0765 3.98575 -4.15759
87 2 1.01605 -1.58389 -1.49331
232 2 2.2416 2.92743 -2.57199
91 2 -0.00546282 -1.05586 3.43772
113 1 0.664271 1.19982 0.670227
257 1 2.84498 2.5097 1.13809
115 2 -1.12028 -2.00289 0.960817
259 2 -1.2785 3.74595 -1.23785
90 1 -2.43605 0.478677 0.299501
234 1 2.68788 1.49845 -3.21237
114 1 -0.0119705 -4.07598 2.58965
401 1 -0.609268 -2.95054 -2.24712
429 1 -0.35886 2.71496 -0.37912
95 2 1.87649 -0.37446 1.47915
149 1 -3.01052 -1.17513 -4.08765
275 2 -0.477396 -3.87668 -0.516934
241 1 2.74134 0.401384 -1.36326
262 1 -3.03422 -0.85864 -2.18384
118 1 1.3639 -4.96427 0.75099
7 2 -1.66365 2.10577 -2.16138
141 1 2.50925 -2.26447 -2.85955
261 1 -1.11268 1.28204 1.5101
119 2 -3.44065 0.711138 2.19803
263 2 1.7191 0.218832 1.51999
240 2 2.25163 1.52782 -0.228428
94 1 -1.8072 2.19402 -1.2543
238 1 6.19268 -1.25547 -1.49734
92 2 -1.3045 -0.227756 -1.06417
123 2 3.21272 1.68106 -2.20597
260 2 1.60239 2.27206 2.29124
219 2 2.52385 -0.780199 -2.16136
287 2 1.42414 1.89893 6.45938
264 2 3.09516 0.607557 -1.32423
229 1 -0.453086 3.29768 2.33102
151 2 -0.929177 1.70501 -0.831826
404 2 4.78333 -2.55498 -0.121305
380 2 2.97443 -0.521415 1.16717
269 1 2.88973 -1.29533 0.640455
267 2 1.16444 -1.47062 -0.900634
124 2 -0.755094 1.52902 0.984178
85 1 1.57397 -1.30702 -1.76391
122 1 2.75094 -0.706991 0.788523
266 1 -0.679202 1.22044 -0.331158
157 1 0.0160002 1.65284 1.46279
432 2 1.55532 -1.91572 2.25837
304 2 1.20394 -0.00684787 0.912666
283 2 -0.60736 3.3091 -0.194633
131 2 -1.95242 -0.507771 -2.86125
127 2 -1.52822 -0.168331 1.4987
396 2 1.66359 4.01863 1.35733
416 2 1.65728 0.158648 1.58612
273 1 -1.9827 -0.775812 -0.349487
271 2 -1.57777 -1.48299 -1.52044
272 2 -2.17175 1.6785 0.20121
246 1 -1.46122 -1.83278 1.71874
126 1 -0.435844 2.24573 -1.98715
270 1 -2.5164 -0.202602 0.0938717
265 1 0.320492 2.86874 2.76258
143 2 -0.570551 0.837968 -2.21008
250 1 -4.17781 -0.513763 4.51941
142 1 1.43998 -0.916784 4.54622
248 2 -0.823785 0.454151 -0.134841
159 2 0.00185024 0.320339 -1.11522
277 1 0.315509 -2.1778 1.01906
279 2 -0.425949 -0.599422 -4.70983
252 2 -0.723324 1.97106 -2.37236
276 2 -0.6734 -0.735829 -5.47987
130 1 -0.147387 -4.14896 -0.483254
274 1 0.889174 3.92235 2.57501
134 1 -1.68356 1.72238 -0.257196
278 1 1.04859 3.26482 1.9281
397 1 -2.56221 1.81796 4.32462
280 2 1.90082 3.62152 -2.12175
286 1 1.30115 -2.37735 -1.73492
284 2 -0.84183 -0.239707 -3.37392
256 2 -2.16688 -2.32401 2.4117
428 2 2.49239 2.99987 -3.79161
139 2 1.62668 -6.32218 -0.395355
400 2 -1.94725 -0.658204 0.000905027
282 1 -0.690606 -1.74453 0.438346
138 1 -0.570875 2.66641 1.87651
258 1 2.06612 1.27228 2.90004
412 2 0.845582 1.80953 -1.64857
281 1 -0.38638 -0.90509 3.02553
285 1 2.39242 -3.34286 1.12622
19 2 -1.38998 0.569686 0.908503
128 2 -0.524873 0.955303 2.30592
393 1 0.118657 0.848197 1.9424
372 2 0.122831 -0.28109 -0.998901
385 1 -1.83212 1.80773 -0.31256
293 1 -2.66402 -3.12455 -2.93023
413 1 2.93862 1.03293 -0.145568
381 1 -0.368266 -1.87238 -2.54129
77 1 1.61502 1.08071 0.431492
859 2 3.71481 0.22925 3.69869
109 1 -0.0142195 0.580814 2.95849
529 1 4.30471 -1.25847 -1.44847
364 2 2.23603 1.66269 0.503989
533 1 3.11418 -2.10184 -1.56614
508 2 1.86678 -3.63387 -4.01896
362 1 0.0846303 -1.186 1.67626
506 1 -2.7185 -1.86523 3.4814
391 2 0.423946 1.22667 1.26911
379 2 -0.905373 3.7058 3.24286
441 1 -3.43037 0.893682 3.88697
528 2 2.40729 -4.01352 1.36558
369 1 -1.69842 -1.82747 -0.9773
389 1 -1.43599 3.69959 -6.04609
511 2 -0.962255 -1.39019 0.165812
550 1 -1.13455 -3.17133 1.79714
676 2 -2.20001 -2.86248 0.534385
660 2 2.14422 -1.665 -0.144792
392 2 1.47918 1.01772 -1.8339
537 1 1.64193 0.756658 -1.55188
535 2 -1.4974 -0.174282 -4.44963
395 2 -0.922441 5.03734 5.03611
366 1 2.21285 -2.71426 -1.47975
510 1 1.38159 6.40357 -1.95934
536 2 0.0286421 -0.40883 1.65678
390 1 1.30591 -0.62672 -0.67035
534 1 2.04291 1.54941 -3.10486
388 2 0.592049 3.08098 1.28875
421 1 0.0595136 -2.18731 2.16867
363 2 -6.10565 0.208594 1.64318
573 1 1.25264 4.10294 1.46436
552 2 2.80474 -1.61073 -0.443211
312 2 -1.66545 -1.02608 4.02279
521 1 -0.988404 -2.72405 4.34241
419 2 0.410608 -1.16485 0.959933
574 1 -3.40818 -0.832647 -0.650362
539 2 -1.38512 -2.64146 2.47961
541 1 0.810232 -1.6097 -3.36106
399 2 -1.60252 -0.714405 -2.1846
516 2 2.19278 3.05824 2.90825
370 1 0.174627 -2.01585 -3.24256
514 1 -3.71247 2.45416 -3.44882
374 1 -0.165512 -1.04223 -3.27663
518 1 2.32146 -2.48437 -0.678567
455 2 -3.0022 1.66797 -3.3724
669 1 -2.20039 -1.89494 0.153046
540 2 -1.50686 -1.18275 0.722156
394 1 -1.24627 -3.45852 1.24902
519 2 0.201261 0.407384 -0.668584
368 2 -2.12497 0.235236 -0.138757
546 1 -1.31076 2.16483 1.62293
375 2 0.309638 1.59084 -1.63957
398 1 -0.468932 2.10802 -0.926544
545 1 -0.702522 1.47342 1.82449
403 2 -1.73807 -4.53204 0.665348
520 2 -0.475183 1.22281 -1.78116
378 1 2.93191 0.938878 1.30645
522 1 0.516019 -0.697181 -0.858561
512 2 2.60802 -0.301304 -2.00637
243 2 3.87701 3.87696 -5.51317
235 2 -1.62299 2.14531 -0.0441534
547 2 -1.68363 -1.42615 -3.67217
548 2 2.76572 5.75346 2.73578
426 1 1.39172 3.57647 0.223912
531 2 -4.62919 -1.19061 -5.78173
430 1 0.886723 0.898323 0.359332
383 2 3.23959 -1.27579 -1.2301
408 2 5.33241 0.197133 -0.893521
406 1 -0.49049 0.710166 -1.13061
668 2 -2.71981 0.0809978 -4.97067
524 2 1.60435 0.624942 -3.24158
549 1 -0.0880286 -3.19353 -1.23621
407 2 -4.1911 -0.113041 2.67189
551 2 1.88307 2.08028 -0.20721
382 1 2.09139 -0.68184 -1.55159
526 1 -0.641355 1.87273 2.03546
517 1 1.09091 2.61897 0.252214
437 1 1.22242 2.17635 0.0781603
553 1 0.0361343 1.92829 -0.736505
696 2 -1.21184 2.44728 -3.94168
532 2 -0.270398 1.56069 0.826686
386 1 -0.914254 -1.74528 -1.00173
530 1 -0.735627 1.78863 -0.563264
692 2 -3.77755 -0.693996 3.90865
452 2 2.88116 -1.70594 -0.484062
700 2 -3.33726 -5.41355 1.0732
720 2 0.843117 2.49419 -0.375556
557 1 6.34977 0.465795 -2.08122
411 2 1.22432 -1.75932 -0.0159571
556 2 -3.23824 -1.10405 2.32873
410 1 -1.98383 1.9616 -2.49421
554 1 2.94127 -0.829264 -1.99842
507 2 -0.843888 -0.452983 3.80964
435 2 -1.70497 -2.24697 -7.14862
299 2 2.93411 0.392492 1.96635
561 1 -1.87126 -5.53362 4.4309
415 2 -4.08068 0.679322 -3.16899
559 2 3.22103 -0.546481 1.94017
560 2 -1.8016 3.15778 -1.11851
414 1 1.87301 -1.56668 -2.84111
558 1 2.925 -2.94693 -2.17617
295 2 1.49938 0.908762 -0.0589332
431 2 0.677413 -3.94444 -0.636558
439 2 1.20023 -1.01815 -2.77708
371 2 1.6527 -3.15377 0.0324859
665 1 -0.371135 -1.35507 -1.49578
542 1 2.47666 0.80193 0.870567
673 1 -2.30798 1.7115 -0.807619
563 2 0.0539113 -1.0959 1.83801
538 1 -3.77494 -2.74125 -1.418
565 1 0.295753 -0.839563 -2.3495
423 2 -1.53544 3.03342 0.194381
564 2 -1.5654 2.77481 0.31237
418 1 2.52044 -0.388694 0.459234
562 1 -3.80795 4.09129 -4.08341
422 1 -3.53626 0.508452 -1.34004
566 1 1.11083 -0.832939 -0.458211
420 2 -1.41155 1.904 4.33966
568 2 1.10745 3.12655 0.599598
701 1 -0.584373 1.63999 2.59217
570 1 -1.45741 2.34613 1.92832
544 2 -0.122679 -1.13231 -4.83807
307 2 -2.56854 2.88028 3.16735
311 2 -1.78773 -3.1206 3.58255
567 2 -0.774648 -3.55932 -0.640431
402 1 3.94377 -1.80212 2.96697
569 1 0.152123 1.36862 1.19866
427 2 -2.86159 -0.126623 -0.527276
571 2 -1.90398 -1.68334 1.44401
697 1 2.02959 1.13913 5.11891
449 1 1.4058 4.49511 5.49096
713 1 -2.38348 1.9358 2.00338
680 2 -3.18478 -3.71372 1.51366
689 1 -0.0791857 -2.31603 -2.33136
717 1 -2.00284 0.628383 2.28659
652 2 0.402517 3.79241 -1.74623
451 2 1.32441 3.1216 2.41536
409 1 4.68184 1.73013 -3.13853
581 1 0.965653 4.46516 2.49398
681 1 1.63678 -1.42032 -0.661596
704 2 0.171438 -0.999476 -5.53594
712 2 0.491895 1.7264 -0.814627
384 2 0.646342 -5.28733 3.1768
365 1 1.67787 -5.16071 -3.87724
417 1 2.2753 -2.1817 0.70289
297 1 -4.11929 -1.64815 0.868478
821 1 3.40813 4.68691 -3.53158
675 2 -2.84296 -2.81481 1.75262
685 1 2.85556 1.97979 1.49727
650 1 -1.26741 -1.8549 -3.01733
794 1 -2.30531 -0.324102 -3.88067
823 2 -0.0625588 1.45651 0.997919
708 2 -1.76951 -4.53146 2.79714
816 2 -1.9308 2.2266 0.651055
101 1 -0.575448 -3.8273 -0.156391
803 2 1.33848 1.31608 -1.25909
657 1 0.506909 0.37254 0.833587
688 2 1.73743 -3.13333 0.938329
656 2 -7.39454 -0.651567 3.20393
825 1 -0.127719 1.39704 0.0582031
679 2 -4.15653 2.01525 0.541422
827 2 2.59271 1.64415 2.33957
800 2 -3.54833 1.47407 1.12959
654 1 -3.20823 6.45831 -2.62561
798 1 -2.51306 -0.261441 1.13137
575 2 -1.12726 2.85018 -1.04549
824 2 -2.35609 0.862575 2.57603
103 2 -2.45794 1.22077 0.709667
813 1 4.304 1.05196 4.90863
799 2 1.61545 -3.214 2.26676
661 1 -1.3309 -0.133788 -3.64559
801 1 -2.51492 0.0837592 -0.816343
76 2 -0.219573 -0.939856 1.79155
811 2 3.44437 1.984 -0.326941
84 2 3.20563 0.0180555 -0.497019
804 2 3.07981 -0.63487 -0.323509
667 2 3.5765 -1.37401 1.32769
829 1 -3.37593 0.774453 -2.43638
687 2 2.83355 -0.650884 2.14641
831 2 2.39407 -2.66822 -1.09286
658 1 -0.182878 0.376229 5.69232
802 1 3.71358 -1.3816 2.34099
662 1 -2.2432 0.110275 -0.131157
806 1 -4.11475 1.43178 -2.57396
4 2 1.56769 -3.10418 -0.209016
88 2 -0.0682766 -0.728123 2.94948
826 1 1.18731 -1.44925 0.835054
830 1 -0.556243 -1.09041 1.14983
636 2 0.645712 -0.196257 -1.84279
659 2 3.0205 3.4712 -2.33119
833 1 -1.71736 -0.23778 0.0703216
691 2 1.0402 0.767066 -4.97079
835 2 -1.38819 -0.350515 4.93648
808 2 -0.605666 -2.5693 2.12384
812 2 -2.20356 2.04369 -2.57292
666 1 1.96886 1.53794 -0.411717
810 1 -1.69964 -2.91006 -2.86865
855 2 1.41961 3.49208 -0.416146
523 2 -2.59883 -0.774293 1.55478
834 1 -0.740224 4.18027 -2.18944
747 2 -1.73366 3.37089 1.23243
709 1 -1.38839 -1.34671 -2.39706
815 2 1.36581 0.840739 3.18687
817 1 -1.30472 -0.146194 2.55899
694 1 1.61288 0.661574 -0.969277
837 1 1.11801 1.98202 2.21021
695 2 3.66247 -2.00843 -3.39191
839 2 -0.395253 1.80846 -2.20041
670 1 1.60423 1.58525 4.63475
814 1 -2.44577 -3.82401 2.56166
555 2 -0.414037 -0.983693 2.37689
718 1 -3.47207 -0.345332 0.992644
651 2 3.23298 -0.679621 1.86394
832 2 -3.81403 -3.17897 -1.72392
838 1 -1.9613 -2.12362 -0.0846232
677 1 5.7053 0.786133 -3.99859
699 2 1.26717 0.305013 -1.02294
725 1 -2.47853 1.65776 1.47477
716 2 -2.41344 1.54066 -2.67096
795 2 -4.09879 -1.3177 -0.779671
735 2 2.46509 0.646676 1.17219
862 1 -4.06516 -0.583662 -2.48728
819 2 1.65803 -2.15534 -2.63362
805 1 -2.66846 -0.638057 2.55699
845 1 1.19452 -2.7929 1.45245
843 2 -2.65681 -0.127648 -1.42081
820 2 4.42011 -2.82818 -0.263837
844 2 -2.50985 -1.41402 6.43001
674 1 0.794284 -0.0756562 1.62059
818 1 5.83004 -1.04159 -0.565572
698 1 3.13975 2.42321 0.570885
842 1 -1.34968 -4.6455 -5.36078
840 2 1.32051 1.4397 1.23611
655 2 -0.333801 0.690146 0.174301
861 1 0.278328 0.0287111 -1.70298
847 2 1.76867 0.180941 -3.03159
104 2 0.828423 -2.70641 3.26228
849 1 -1.98461 3.18996 -1.40612
703 2 0.679131 -1.21506 1.46473
707 2 1.01737 1.21687 0.948793
848 2 2.66225 1.76304 0.486225
678 1 6.84697 -1.14192 2.35068
822 1 -0.364146 3.46206 0.246313
702 1 -2.58931 0.480562 -3.80904
846 1 -1.57098 1.78016 0.535657
729 1 -0.288013 0.0727668 1.29443
731 2 1.77704 1.61482 -4.21549
796 2 -0.762409 -4.67394 -1.05144
129 1 -0.656384 0.354928 -2.1542
743 2 0.310432 5.07398 -0.931067
737 1 -0.686703 2.59572 -0.765571
828 2 2.93412 -2.40081 0.784479
682 1 -3.8356 1.40499 0.77886
736 2 0.616752 -1.94307 -2.03505
144 2 0.271512 2.60453 1.48357
853 1 -2.81989 -3.50176 -1.26183
136 2 -2.79259 -0.0685016 3.17723
684 2 -0.270318 1.31158 2.0137
852 2 -2.91298 -5.13804 0.236312
706 1 5.31556 0.454992 0.0189804
850 1 1.35809 0.751103 0.581011
710 1 -3.57845 -3.07747 3.61974
854 1 -2.79824 0.0203361 2.18468
856 2 0.32834 2.30473 4.58517
841 1 -0.37984 -0.91483 -1.03719
121 1 -0.0425395 2.10986 0.15294
686 1 -0.657215 2.20914 -3.37934
690 1 -0.658163 0.310477 -0.927005
105 1 -0.125478 -2.52485 -2.16309
719 2 3.69946 -0.64058 0.528064
858 1 -1.84122 -4.38777 0.0933928
714 1 -1.79827 3.79415 0.303865
860 2 1.51653 -4.46723 2.3746
857 1 1.60735 -1.16207 -1.47849
715 2 0.597823 5.90223 1.85657
739 2 -0.456714 1.51552 0.604362
583 2 0.969588 2.34669 -0.109716
543 2 0.40028 -0.524478 1.91113
863 2 0.198932 -2.01725 1.10597
864 2 3.50254 2.01973 -0.833392
836 2 -3.07377 7.36569 1.13719
133 1 0.827432 -0.770074 -3.56209
9 1 1.09546 2.69648 1.87082
851 2 0.252622 -4.23041 3.58547
100 2 -0.502519 -4.1784 1.1139
125 1 -0.643993 1.21176 3.87169
733 1 -1.4237 2.9736 1.40229
705 1 -1.21552 -0.74887 -4.05526
132 2 -5.71872 -2.88697 3.5081
120 2 0.127112 0.716945 0.551474
81 1 -1.8916 -1.62411 2.71978
97 1 -0.632792 -2.08552 0.860453
80 2 0.305633 -1.99555 0.398465
5 1 -1.60674 -2.08307 -0.439265
683 2 -5.17488 -0.290439 -1.38825
693 1 -1.92456 -0.144521 -3.86729
649 1 0.109069 -0.786816 0.0828338
711 2 -0.208091 -1.57604 -2.23925
597 1 1.23997 0.485667 -0.829124
