ITEM: TIMESTEP
0
ITEM: NUMBER OF ATOMS
864
ITEM: BOX BOUNDS pp pp pp
0.0000000000000000e+00 3.2219999999999999e+01
0.0000000000000000e+00 3.2219999999999999e+01
0.0000000000000000e+00 3.2219999999999999e+01
ITEM: ATOMS id type vx vy vz
1 1 -0.344795 -1.33558 -3.85254
145 1 1.27205 -1.57993 3.65118
25 1 -1.25928 -0.0598069 2.77399
169 1 1.44803 -0.886298 0.48345
5 1 -3.71656 1.41673 -1.30781
149 1 -2.78979 0.473351 -2.15906
29 1 0.869923 1.76721 -0.668683
173 1 2.58758 -0.696803 -1.42469
3 2 -0.286514 -0.00601733 2.35443
147 2 0.0668548 -2.3824 1.72952
27 2 4.09297 4.15082 -3.67625
171 2 -3.958 3.53384 -3.77009
4 2 3.5317 3.27635 2.17498
148 2 1.83432 -3.85472 2.46489
2 1 -1.77879 -3.61207 -0.050409
146 1 -3.15798 3.49892 3.19245
9 1 -0.412048 1.9383 -2.7855
153 1 0.89913 1.15974 -0.250377
33 1 2.12073 1.01251 -1.38967
177 1 -2.82983 1.29939 0.529923
7 2 0.927667 2.88335 0.488639
151 2 3.0681 1.74723 2.61141
31 2 3.30423 -2.05709 0.718146
175 2 3.99689 -2.7236 2.3307
11 2 -0.430425 -2.57399 -2.45076
155 2 0.531225 3.59247 1.48036
35 2 -2.23731 -1.56014 3.96871
179 2 0.325659 -3.42548 2.71
8 2 -2.79347 -2.50559 3.53244
152 2 -2.66291 -0.750233 -3.69485
6 1 2.99236 0.937325 3.35521
150 1 -2.14923 1.27362 3.28285
13 1 1.29416 -2.64518 -0.270527
157 1 -2.87352 -3.58318 1.92938
37 1 -3.08656 -1.01216 1.62396
181 1 2.60716 3.51384 0.298307
15 2 -4.10183 2.38678 3.63777
159 2 -2.70921 3.4426 1.80945
39 2 3.5812 1.25603 1.52286
183 2 -4.21556 -0.33906 2.42831
12 2 3.3224 2.34702 -2.42485
156 2 -4.31681 0.482423 0.156268
10 1 -3.10923 -1.51178 -0.442847
154 1 1.63648 3.56343 1.35731
14 1 0.581721 1.4938 1.91621
158 1 -0.897749 3.83949 3.69785
17 1 -0.322517 0.517545 3.3716
161 1 1.14326 -2.06683 1.27376
41 1 2.70806 2.87623 1.65907
185 1 1.51011 -3.77119 -2.77938
19 2 2.62431 -2.30081 -2.69026
163 2 0.703676 -4.25452 -1.63958
43 2 -0.737667 1.19469 2.40712
187 2 3.75244 -1.10204 -0.927997
16 2 4.05314 -3.05115 0.024203
160 2 -1.16214 3.72272 -2.0027
20 2 3.40589 4.10861 0.411377
164 2 -2.14098 0.922278 -1.75858
18 1 0.0334528 -1.77554 -2.0904
162 1 -0.501515 -3.46938 -3.6649
21 1 3.84949 2.97771 2.84759
165 1 3.27391 0.424381 -0.766001
45 1 2.04766 1.64069 -2.65456
189 1 -2.36004 1.54204 -3.94234
23 2 0.266143 2.30921 -1.71904
167 2 1.16514 -4.1116 1.4523
47 2 -2.83306 2.69946 -3.29377
191 2 2.62396 0.366053 -3.85327
24 2 0.0770468 -3.05112 0.523186
168 2 1.5943 3.4207 3.46974
22 1 -1.53224 2.06677 0.2476
166 1 -0.511874 -3.17544 -2.17305
49 1 -3.00161 -0.219668 3.32543
193 1 2.01715 -3.80837 -1.53518
53 1 1.08403 1.34517 0.917102
197 1 1.03544 1.0858 1.6346
51 2 4.20911 -4.28192 2.12363
195 2 2.59525 -0.649985 -4.1108
28 2 1.25711 2.43916 -1.55154
172 2 1.8383 2.93231 -1.98159
52 2 2.90803 2.61665 -2.16981
196 2 3.96519 -2.40157 -2.23446
26 1 -0.763473 1.34436 3.16551
170 1 2.39154 2.23312 -2.23515
50 1 3.72443 1.80163 -0.859853
194 1 -0.568751 0.0885945 -0.128267
57 1 -2.45733 -0.585883 -0.0943736
201 1 -3.04996 3.75375 -2.57161
55 2 -1.94061 -2.00891 2.17816
199 2 3.69272 1.05652 1.68381
59 2 3.37046 1.86757 -4.04582
203 2 1.18237 1.6771 2.04426
32 2 0.839491 -0.165799 -0.419982
176 2 1.90384 3.72042 2.24736
56 2 3.13997 -2.71555 0.0688394
200 2 3.78807 -4.27803 -1.20905
30 1 2.54546 -3.07455 -2.87847
174 1 -2.89367 -1.47121 -0.357695
54 1 0.518756 -2.43365 3.42271
198 1 -1.18702 1.53957 2.27218
61 1 2.78348 1.98867 3.40806
205 1 1.25624 2.23611 0.414456
63 2 1.30994 -3.85829 2.66207
207 2 -4.15723 -0.066334 3.21572
36 2 2.83519 -0.484048 -1.06749
180 2 2.42807 1.243 -2.55142
60 2 0.18731 1.50767 0.443804
204 2 1.01258 2.61498 4.1506
34 1 1.34251 1.5 2.95136
178 1 -1.40354 0.987681 1.47311
58 1 3.15258 -1.49008 -0.32942
202 1 -3.57465 0.366626 3.5988
38 1 -2.59397 1.89218 -1.09557
182 1 2.39058 2.01091 -3.21786
62 1 -3.55089 3.27362 -2.13162
206 1 -0.0303422 -3.79848 -1.69472
65 1 3.63284 0.290656 3.05545
209 1 -3.52237 -0.888335 -2.03645
67 2 -0.392933 -0.125726 2.41577
211 2 -0.961825 -0.157042 0.58701
40 2 -3.68364 -2.58475 -2.83234
184 2 -3.56167 1.01269 -4.05692
64 2 0.0154403 1.92669 0.838199
208 2 3.22248 -0.282351 1.11246
44 2 -2.72616 2.3086 -3.3499
188 2 3.72465 -3.97783 -3.10041
68 2 -0.0228451 3.33943 -3.81348
212 2 -4.19772 -1.37013 -1.09365
42 1 3.45703 2.22548 -3.84497
186 1 -2.86368 3.30279 -3.3834
66 1 -2.34254 2.4451 1.06796
210 1 -3.08743 0.191277 -2.47547
69 1 1.73855 -1.27803 -3.65571
213 1 3.0887 2.94341 -2.83783
71 2 -4.31443 -2.42668 -2.92212
215 2 1.02114 0.325384 0.501337
48 2 2.87016 2.54737 2.81807
192 2 -2.32306 1.76918 1.78758
72 2 -0.0825249 -2.29201 -0.927291
216 2 -1.39609 1.14154 3.32854
46 1 -1.8327 1.92957 1.05979
190 1 -2.9025 0.870004 -2.44196
70 1 -3.67562 -0.29715 1.15482
214 1 -3.78946 -3.09388 -2.84312
289 1 2.71943 3.66521 -0.247359
433 1 3.31244 -2.16926 -0.0980677
313 1 -3.49799 -3.47521 1.37271
457 1 -0.191133 -3.01325 -3.17484
293 1 3.19793 -0.259741 3.63187
437 1 0.0900699 -1.48104 0.899487
317 1 -0.667077 -3.61311 -1.62866
461 1 -0.916415 -0.719723 1.7871
291 2 -1.39213 -1.02864 3.25841
435 2 -2.65926 0.344221 -1.05727
315 2 2.67705 -1.49096 -2.62769
459 2 2.63188 -4.06381 -3.52285
292 2 -2.69956 2.31844 -1.33628
436 2 4.18677 -1.36538 1.29457
290 1 -0.92349 -0.727383 -0.122006
434 1 0.274645 1.12297 0.162768
297 1 -1.34424 -1.23336 1.82486
441 1 1.55208 -4.00062 1.74644
321 1 -1.4536 -0.119397 0.0839413
465 1 0.0724572 3.73743 0.587484
295 2 4.18687 0.349734 -2.97358
439 2 -3.37585 2.89892 4.29215
319 2 1.77117 0.929455 -1.51211
463 2 3.31735 3.48178 -1.73181
299 2 0.212548 -4.24362 1.00665
443 2 0.437705 -3.28847 1.13652
323 2 -0.744816 1.43126 -2.72619
467 2 -0.749879 2.32059 0.388884
296 2 0.931927 -2.90294 -2.47724
440 2 2.98246 -1.76031 1.57507
294 1 -1.28994 -0.20145 0.356388
438 1 2.78648 -2.989 -0.0173969
301 1 1.20678 3.3436 0.762559
445 1 0.0087291 2.838 1.12432
325 1 -0.734017 -3.00455 0.345458
469 1 -3.6217 2.27036 -2.58093
303 2 -0.715181 0.792248 -3.1974
447 2 -0.225998 2.47955 -2.01851
327 2 -2.62733 3.8224 -3.35382
471 2 0.245014 -0.27407 2.72323
300 2 -2.91798 2.80343 -1.33944
444 2 1.42057 -1.66825 1.27283
298 1 2.77048 -2.46558 -2.00126
442 1 -0.290532 -0.967202 -3.70896
302 1 0.757486 -1.27722 1.94918
446 1 -2.6006 1.39332 1.69726
305 1 -3.74253 0.932388 -0.345405
449 1 2.36961 -1.70269 1.52625
329 1 -1.51504 -2.10579 -3.5132
473 1 -3.76751 1.23322 -1.77817
307 2 -0.541444 -2.64528 3.14698
451 2 2.30398 -3.56253 3.75367
331 2 3.15268 -4.08721 -1.33677
475 2 -3.79805 0.579521 -1.60064
304 2 -0.826271 -0.457355 0.45135
448 2 -3.66336 2.8872 -3.53017
308 2 2.19469 -0.253617 2.54195
452 2 -0.193633 -3.8552 3.013
306 1 1.84376 -0.729368 -1.77314
450 1 1.7785 -3.56124 -1.81054
309 1 -2.70905 1.90435 -2.64868
453 1 -2.82104 -1.58611 2.76468
333 1 -3.05846 3.42884 -1.44982
477 1 -4.00047 1.83952 1.66422
311 2 -2.29736 3.84563 0.10275
455 2 2.02064 -2.21621 0.385948
335 2 0.72713 3.00428 3.86417
479 2 -1.02897 -2.26878 2.53419
312 2 -1.45114 -4.05595 -0.500796
456 2 -2.66368 3.36251 -2.76751
310 1 3.5553 -2.88285 0.420557
454 1 -3.96733 -3.90107 2.25167
337 1 -2.73457 1.03925 -3.82348
481 1 -1.8491 3.73603 0.848897
341 1 -0.132306 2.70674 -1.05068
485 1 -1.77989 1.68575 1.61316
339 2 1.48212 0.992801 -3.04714
483 2 -3.4554 -1.43701 1.24859
316 2 3.69095 -2.9051 -4.28807
460 2 1.90766 -0.756324 -2.88914
340 2 1.7568 0.261479 1.2368
484 2 4.03259 3.97289 -1.93585
314 1 -1.91099 2.05874 -0.0255769
458 1 -1.08525 -0.318351 1.56278
338 1 2.6477 2.96635 2.22674
482 1 -2.92348 -3.06304 0.327027
345 1 -1.8677 0.286055 -2.93178
489 1 0.653586 -3.52895 1.81954
343 2 -3.93789 -2.27366 -2.13394
487 2 -1.67774 -3.47092 4.2871
347 2 2.90739 0.548454 0.752035
491 2 1.42273 0.221654 2.56256
320 2 2.47368 2.58558 0.0974745
464 2 1.88755 -3.46311 -2.02578
344 2 -1.58099 -2.52604 3.73962
488 2 -0.326522 -1.74003 -1.46719
318 1 1.32466 2.62943 -0.472411
462 1 0.276556 1.52825 2.12546
342 1 -0.178234 -0.264529 2.4422
486 1 2.10364 -0.886084 -3.84378
349 1 -3.29416 -2.15136 -0.473631
493 1 -2.50016 0.922681 2.9818
351 2 3.48201 2.16542 -2.20138
495 2 4.15625 1.63727 3.29338
324 2 3.14404 -3.13165 -2.89046
468 2 3.14697 3.13301 0.543797
348 2 -0.851677 2.45777 1.68024
492 2 3.42545 -2.5807 -3.53262
322 1 3.38443 2.89851 3.44861
466 1 -0.674821 1.00116 -1.83345
346 1 -2.89564 -2.84117 3.37877
490 1 -1.11806 3.0665 -3.08352
326 1 -2.221 -0.151625 -2.52246
470 1 -0.767839 -0.683935 0.813611
350 1 -0.0121772 0.264165 1.75186
494 1 -3.01995 0.649881 -0.0158969
353 1 -2.82434 -1.47585 0.913518
497 1 -3.25989 3.06968 2.7876
355 2 4.08483 -3.56612 3.56755
499 2 -0.204014 2.23707 -1.71152
328 2 -3.80432 -1.57892 -2.21356
472 2 -2.15885 1.48841 3.52965
352 2 0.702604 3.52528 -1.47848
496 2 -1.84439 -1.2085 -1.71782
332 2 2.63858 -3.19748 -0.152156
476 2 0.371456 1.03939 -2.46306
356 2 -0.525285 2.38936 4.01355
500 2 0.275204 -0.185643 1.40331
330 1 1.2706 -2.16501 -0.0452404
474 1 3.44671 3.23494 -2.15248
354 1 -3.1978 0.0783919 2.79629
498 1 2.65027 -1.35931 1.5981
357 1 0.555087 -2.20912 3.70957
501 1 1.17283 3.39051 -3.50075
359 2 -2.41776 0.862541 0.238947
503 2 0.0178738 -0.164925 -2.91903
336 2 -2.74009 0.348505 2.15679
480 2 -1.18194 -2.32817 1.77516
360 2 -2.46639 0.410531 4.23419
504 2 -0.974879 3.99952 -1.60132
334 1 -3.38207 2.65882 2.13566
478 1 3.72513 -2.41554 -1.35503
358 1 -3.08599 0.62318 3.06959
502 1 1.07127 0.944042 -2.65181
577 1 2.13529 -0.0177065 -3.09677
721 1 -0.683858 -0.272663 0.49111
601 1 -3.91952 -1.0152 -1.91327
745 1 -1.69856 -2.7959 3.28657
581 1 3.36903 -2.23032 -3.79136
725 1 2.0212 0.790871 -0.637148
605 1 1.62786 1.31275 3.01067
749 1 1.21168 -1.62171 -0.928613
579 2 1.90821 -0.142347 -1.78354
723 2 0.635254 -2.04543 -1.0261
603 2 0.13721 2.09828 4.28031
747 2 -4.1671 -2.56534 -3.32072
580 2 -1.38961 -1.72525 -2.40466
724 2 -3.73416 -0.47121 -0.252236
578 1 -0.32079 -2.16499 0.29481
722 1 2.02287 -2.7134 2.48514
585 1 3.52137 -2.31033 -0.765855
729 1 -2.25567 3.887 1.57069
609 1 -3.53461 -0.503591 3.64547
753 1 -0.657797 1.74032 -0.791859
583 2 2.75217 -2.90014 1.6102
727 2 -2.42501 -0.719443 -2.11871
607 2 -0.325267 2.15444 2.33346
751 2 -0.341428 -2.92071 -0.130238
587 2 0.961338 1.30779 2.96301
731 2 -4.08709 0.739568 -2.96541
611 2 1.29011 -1.78776 -3.94948
755 2 -2.48511 3.83943 -0.852012
584 2 -1.2008 -1.18187 -1.26269
728 2 0.62091 -2.37586 -0.0523595
582 1 1.32518 3.439 2.81266
726 1 -1.23005 -0.358504 0.525339
589 1 -2.33069 3.37068 -3.81901
733 1 -3.53797 -1.48812 0.876255
613 1 0.599705 2.52745 -2.07213
757 1 1.3104 0.75019 -2.62406
591 2 1.88147 -2.43742 -2.86637
735 2 -0.673347 -1.15818 1.36178
615 2 3.28189 0.7682 -3.25137
759 2 3.49967 -1.95006 2.57819
588 2 1.07609 3.8326 -3.97672
732 2 2.95927 4.06145 -1.02713
586 1 -3.48473 -2.46968 0.335385
730 1 -0.702417 -3.02337 1.1688
590 1 0.742365 -1.7412 -3.74693
734 1 2.60704 1.39493 -2.95249
593 1 2.55858 3.46547 3.86976
737 1 1.99146 0.347251 2.97943
617 1 0.88967 0.70276 0.874903
761 1 -2.04424 -1.9596 -3.9426
595 2 -4.34781 4.04269 1.67621
739 2 -3.59378 3.06977 3.93997
619 2 0.54044 3.71057 0.138251
763 2 1.5774 3.09113 1.77311
592 2 0.0603937 0.804307 1.70738
736 2 -4.09215 1.69074 -0.854387
596 2 -2.59185 -1.70543 3.9819
740 2 -1.25202 -2.28523 1.22946
594 1 2.80701 1.1656 3.10862
738 1 0.904641 -1.34346 -1.50613
597 1 3.20376 2.44298 -2.88914
741 1 0.747823 2.79405 -0.328406
621 1 1.71716 -4.00292 2.74034
765 1 -2.9603 -3.45749 -2.01938
599 2 3.58798 3.42416 1.44143
743 2 2.94952 3.48967 1.98674
623 2 -0.109166 -2.94316 0.884311
767 2 -2.7361 -1.33629 0.212786
600 2 -2.34561 1.12635 -2.72353
744 2 3.85001 -3.64536 -4.10347
598 1 -0.812615 -0.153849 -0.273709
742 1 -0.130869 3.08262 -1.67795
625 1 1.32901 -3.56386 1.75846
769 1 -1.69009 -3.17528 0.444791
629 1 3.49253 -3.48941 0.525407
773 1 -0.915246 3.06752 -1.79326
627 2 2.9398 3.48363 3.60926
771 2 -2.9936 -4.14911 -1.20027
604 2 3.80708 -2.83183 -2.52807
748 2 -3.45895 -0.933503 2.87851
628 2 3.58463 -1.36783 3.12448
772 2 1.4117 4.08524 3.18783
602 1 2.92042 -3.23803 0.122016
746 1 1.48671 -0.665172 -0.926268
626 1 -2.31906 0.724595 3.19341
770 1 0.290792 2.96519 -1.53271
633 1 0.650419 -1.27249 2.24116
777 1 -1.64877 1.67757 -1.16998
631 2 0.657547 2.90011 -1.52927
775 2 -0.281883 0.446633 0.518498
635 2 1.15812 -1.81107 -0.28037
779 2 -0.13277 -4.12317 -3.814
608 2 -3.6552 2.47552 -1.0255
752 2 3.61831 -2.77462 -3.88706
632 2 3.21632 -0.674739 1.16774
776 2 -0.609111 3.66637 -3.29827
606 1 -0.740535 -1.56057 -3.94997
750 1 -2.94334 -3.81733 -1.45643
630 1 -3.50925 -2.33941 1.91834
774 1 -3.83931 -0.716207 -2.53201
637 1 -0.558118 -3.53661 -0.131311
781 1 -0.484641 2.68001 1.43493
639 2 0.411173 -2.09886 3.67603
783 2 -4.01807 -0.0213076 3.32165
612 2 -2.80275 -3.80267 0.213829
756 2 -3.44287 2.91192 -0.861842
636 2 -3.42183 3.88983 3.59109
780 2 -1.24041 3.80171 1.44785
610 1 -3.52094 -0.698767 -2.72696
754 1 -3.59404 -0.561273 1.30065
634 1 -1.73386 -1.66006 -3.46347
778 1 3.33419 -1.24799 1.77214
614 1 -2.59336 -3.79743 0.103101
758 1 -1.16083 -2.24294 -1.87728
638 1 2.78873 3.11368 -2.98418
782 1 2.12037 2.91732 2.53723
641 1 1.03423 -3.3094 -2.22703
785 1 -3.99495 -0.523153 -0.121947
643 2 2.73115 -3.63721 3.81017
787 2 -0.0605457 -2.61658 3.88436
616 2 -0.294514 3.12379 0.488955
760 2 -1.38289 -0.489818 -3.46409
640 2 -2.3612 -2.97312 -3.94739
784 2 -1.15846 -3.22478 -3.19626
620 2 1.99451 -2.7266 3.52906
764 2 -0.40973 1.30424 3.4581
644 2 1.20355 -3.39221 3.03678
788 2 3.19975 -4.0318 1.39932
618 1 -2.31485 0.127846 1.61851
762 1 -3.05188 3.08306 -2.30402
642 1 -2.75201 1.28799 -0.914154
786 1 1.40675 3.05321 3.38971
645 1 -3.14884 -1.4251 -2.17741
789 1 -1.63885 1.90876 0.176409
647 2 2.82673 3.47557 -2.8069
791 2 3.58016 1.01501 0.45696
624 2 0.810917 1.09619 -2.24925
768 2 -0.988535 -1.95407 3.8994
648 2 -1.22037 -3.27448 4.09929
792 2 1.43404 1.16587 -0.493684
622 1 3.17509 -3.67854 0.645437
766 1 0.911037 3.09257 -1.04696
646 1 -1.68 0.00679569 -3.50568
790 1 3.3111 -0.881181 -0.711586
73 1 -3.62578 -2.92758 1.75576
217 1 2.45882 -0.630786 -1.70323
97 1 3.60526 -3.53571 -0.825578
241 1 1.54722 1.58988 -0.47614
77 1 0.299823 -3.78763 -1.66568
221 1 -2.00429 3.55093 -2.64695
101 1 -0.616174 3.69396 -0.686693
245 1 -1.66978 -2.76421 -3.23552
75 2 1.2175 -1.09349 -3.34565
219 2 0.277339 1.30574 2.97867
99 2 -2.14675 -1.46148 2.69541
243 2 -2.58593 3.18044 -1.86469
76 2 0.563023 -3.67375 0.287817
220 2 -3.07828 -0.112758 -3.18236
74 1 -2.37031 3.33992 2.36549
218 1 -3.60431 1.16253 -0.763648
81 1 -0.939117 -1.76865 2.60916
225 1 2.60776 -2.39359 2.85116
105 1 -1.81827 -1.3607 2.05948
249 1 -1.04781 2.66651 -3.42294
79 2 -2.47282 4.11486 2.39493
223 2 -1.63233 3.1689 1.89567
103 2 -2.63982 0.26593 -1.33803
247 2 -1.89795 1.4265 3.33823
83 2 -2.85618 1.14064 -3.24928
227 2 3.96749 1.87067 -3.51756
107 2 2.66004 -3.71639 -2.72593
251 2 4.13567 -0.316348 -2.78108
80 2 3.39514 3.99438 -1.99332
224 2 -1.36758 -1.15482 -2.29989
78 1 -0.0362596 -0.198565 1.27076
222 1 -1.56137 -3.84602 -0.0600444
85 1 -0.463551 0.40838 -0.171225
229 1 3.81305 0.88784 -3.90108
109 1 -3.84196 2.40002 -3.47014
253 1 2.77269 3.00167 1.29428
87 2 2.21295 -2.98555 2.1172
231 2 -1.49866 -3.11453 0.988786
111 2 0.511742 2.88834 -1.59105
255 2 -2.51179 2.56548 -2.32695
84 2 -3.83134 -0.0181171 -3.2455
228 2 3.90852 -0.340916 -2.96842
82 1 -0.492443 -1.61875 1.1991
226 1 2.17228 3.40735 2.0866
86 1 -2.41953 0.645736 1.66956
230 1 0.503252 -1.39516 1.47469
89 1 3.49401 -2.38634 -2.04868
233 1 2.1986 1.78531 2.221
113 1 -1.5822 2.64475 3.34784
257 1 -2.15991 -3.82529 -0.450623
91 2 1.38721 -3.43747 -0.99877
235 2 0.012976 3.4996 -3.08522
115 2 2.50211 -1.1537 -0.657877
259 2 -2.67874 -0.300022 -3.53856
88 2 -2.42218 3.87538 1.49891
232 2 4.20534 1.24837 1.71946
92 2 -0.8473 -1.34947 2.10908
236 2 -1.72456 0.639284 -3.15948
90 1 0.0284091 0.655864 -2.5106
234 1 -0.540835 1.56786 1.94329
93 1 -2.19961 2.66261 2.29391
237 1 -1.33445 -3.10581 2.76075
117 1 -2.82149 -1.11117 2.32047
261 1 3.31166 0.592545 3.46151
95 2 0.734521 -1.74447 1.31086
239 2 1.56159 3.83575 -2.56045
119 2 -0.585315 -0.526431 0.2759
263 2 -2.07777 -2.8996 2.13562
96 2 -1.64134 -2.19112 0.74649
240 2 1.45114 -3.73168 -1.81874
94 1 -2.55552 -1.97474 3.13942
238 1 2.41535 -1.78088 3.22284
121 1 -0.540417 0.665884 -0.58201
265 1 -2.84089 -2.22377 3.28838
125 1 1.65992 1.17536 0.73518
269 1 2.41654 2.23846 0.299379
123 2 0.717954 3.55515 1.91442
267 2 -0.336462 3.16618 -0.823879
100 2 0.113556 0.0685472 0.204081
244 2 3.80233 3.37835 -3.18448
124 2 0.528564 1.86342 3.60854
268 2 -3.25199 3.77772 2.34629
98 1 3.72091 -1.91657 -2.18648
242 1 -0.283861 0.174713 -3.41671
122 1 3.33405 -3.48254 -2.95659
266 1 -0.274315 2.06237 -2.46985
129 1 -3.14857 3.13335 2.63797
273 1 -0.678958 2.81436 0.228277
127 2 1.26818 -0.684459 1.1724
271 2 -3.23979 2.39705 -4.25158
131 2 -2.11409 -2.83163 0.851015
275 2 -1.58425 2.90155 -3.10351
104 2 -4.25593 0.564179 -1.49552
248 2 3.17166 -3.26645 1.53845
128 2 -3.27365 0.951995 -1.02264
272 2 -1.82094 -2.71506 -0.31367
102 1 -2.31587 -1.14901 0.54971
246 1 -3.29724 1.51029 1.52839
126 1 3.71591 1.26572 -2.59201
270 1 -0.291246 2.88418 0.378854
133 1 0.833804 -2.81029 -0.769152
277 1 -1.93211 3.80897 -1.93573
135 2 -3.51761 2.06776 -1.35972
279 2 -1.18411 -4.34068 3.39295
108 2 0.535758 2.3971 -3.45469
252 2 -3.83433 1.34216 -4.04957
132 2 3.56837 0.500136 -3.07928
276 2 1.76086 -0.322722 1.87681
106 1 -0.439241 -3.22569 1.44379
250 1 -1.24559 0.0658339 -2.15646
130 1 3.3654 0.0758478 -0.325959
274 1 3.57933 -3.28945 0.0495762
110 1 0.356828 3.03104 3.31178
254 1 -0.488602 -0.478943 -2.2396
134 1 -1.40548 0.0644195 -2.14632
278 1 1.34343 1.06128 1.77741
137 1 0.839499 -2.23672 -0.265138
281 1 3.61464 3.51642 -3.91562
139 2 2.8315 -2.39316 1.48434
283 2 1.55856 -4.09981 1.88756
112 2 3.11175 -4.04095 2.37871
256 2 1.58184 0.335684 1.64847
136 2 -3.35012 -3.2301 1.89888
280 2 0.126386 0.753246 3.37047
116 2 -1.0136 -1.91334 0.594566
260 2 -1.61317 -1.5678 4.16531
140 2 1.17981 1.69647 0.860469
284 2 -2.11022 2.08632 1.02988
114 1 1.29638 3.06279 -1.99597
258 1 0.581126 -0.566961 0.830372
138 1 -1.76991 2.84912 -2.15142
282 1 -0.606093 -1.26563 -1.42342
141 1 3.72869 2.01478 -1.68732
285 1 3.50585 -1.57559 -2.7853
143 2 -3.65145 -3.28081 0.793691
287 2 -1.67474 3.92481 -1.84737
120 2 2.0583 3.17514 3.57721
264 2 3.65478 -0.287774 -4.04589
144 2 4.23845 -1.1563 -1.43715
288 2 2.24892 -0.307377 1.82189
118 1 -2.18392 -3.10067 2.00286
262 1 3.81365 3.03093 1.54986
142 1 1.3022 -2.22217 -1.5236
286 1 -2.0491 3.58251 -2.99012
361 1 -0.972597 -1.62689 -0.868689
505 1 0.0746098 0.279611 -0.256962
385 1 3.51752 -3.74526 -3.07645
529 1 1.30363 -1.97639 -0.840831
365 1 -2.89536 1.9624 -2.06529
509 1 3.78707 0.12183 3.54932
389 1 -1.20542 1.41391 -1.05059
533 1 3.57334 -0.918643 3.84645
363 2 2.77908 2.15747 1.74101
507 2 3.28737 -1.72314 -1.30014
387 2 3.40827 0.9948 -3.85317
531 2 -1.54646 1.8084 -1.07301
364 2 -1.34241 0.481881 -0.349769
508 2 -0.190234 1.6857 0.332923
362 1 -2.50012 1.73177 -1.89905
506 1 0.841849 -2.36761 3.50686
369 1 -2.25676 1.33147 0.550926
513 1 3.00469 2.11274 3.86256
393 1 -0.239871 2.27633 2.54023
537 1 -3.49719 2.08234 0.340503
367 2 -3.07581 -1.60465 3.93531
511 2 3.77819 1.65145 0.841011
391 2 -3.78019 -0.125981 -1.85678
535 2 3.29988 2.16085 -1.64429
371 2 3.22647 -2.12044 2.23736
515 2 -0.963651 3.55984 3.29923
395 2 1.53501 -4.29444 -1.88357
539 2 2.25102 0.599966 -1.90331
368 2 3.86667 1.2036 -2.6776
512 2 -2.24204 -3.73901 4.02185
366 1 -1.98152 -2.26574 3.4644
510 1 -1.69815 -3.92234 1.52452
373 1 -2.08164 3.56623 0.895351
517 1 -0.674251 2.64513 1.86156
397 1 -3.04236 -3.38097 -0.168144
541 1 2.35231 0.826579 -2.96835
375 2 1.9549 2.14723 1.61257
519 2 -2.47272 -2.86613 -2.94292
399 2 -1.70911 2.40823 3.07997
543 2 -0.743501 -2.2696 -2.61653
372 2 3.70671 4.09062 -0.872796
516 2 -3.91721 1.35806 -3.30081
370 1 1.71806 3.15816 -0.466527
514 1 2.47355 1.21922 0.634754
374 1 1.72296 -1.64552 3.04209
518 1 2.67604 3.69503 1.3941
377 1 1.65224 -1.22232 -2.82292
521 1 -2.28335 -1.68062 -0.245777
401 1 3.1986 2.99197 -3.21445
545 1 -2.61263 -2.57248 0.668659
379 2 3.93722 0.355679 2.36316
523 2 0.9178 0.415698 -3.49745
403 2 1.39391 -2.5916 2.47951
547 2 3.58964 -3.14457 3.54494
376 2 2.04456 -4.33024 -1.76797
520 2 3.93174 2.98834 2.384
380 2 3.93678 1.68656 -2.40865
524 2 -2.74833 -0.489996 2.154
378 1 -0.693062 3.58728 -2.10278
522 1 1.59606 -2.08029 -3.02549
381 1 3.01677 -0.958901 1.0461
525 1 -2.67095 0.143816 0.489497
405 1 -2.31911 -0.148144 0.48177
549 1 -2.56816 -0.372605 1.34336
383 2 1.14496 0.673708 -0.691169
527 2 1.2848 3.52406 3.92989
407 2 -1.23244 0.204141 0.569034
551 2 0.67671 -1.75537 -1.27069
384 2 -3.87397 -2.83638 -1.54185
528 2 2.28932 -0.655981 -1.69657
382 1 2.40244 3.15513 -3.83073
526 1 -1.31926 -1.51813 3.79896
409 1 -2.3142 3.16012 0.72432
553 1 0.959492 0.962406 -3.1748
413 1 2.95639 -1.1368 -0.314492
557 1 3.41746 3.104 0.895373
411 2 0.442198 3.42897 -3.58741
555 2 2.81262 -1.51166 1.87554
388 2 1.80964 2.64338 0.0463267
532 2 -3.285 -0.635282 2.24767
412 2 -2.43122 -1.84984 1.59153
556 2 -2.85213 0.266807 -3.80134
386 1 -1.91282 2.91229 -2.76735
530 1 -2.86942 1.79605 0.39432
410 1 -1.98573 -1.6724 3.17973
554 1 2.09455 -3.0718 3.69366
417 1 -2.67681 -3.19675 -3.61201
561 1 3.37514 -2.6583 1.178
415 2 3.86288 -2.3174 2.24187
559 2 1.75131 2.48149 -3.81295
419 2 -3.86524 -2.21229 -2.41255
563 2 -1.54849 2.13361 -3.82986
392 2 0.810531 3.20472 2.01305
536 2 -2.58329 -4.01723 -3.17093
416 2 2.61452 -3.4279 -3.54417
560 2 -0.787248 1.92714 -0.123776
390 1 -0.853426 3.62031 -1.88916
534 1 -0.735358 -1.75903 -2.13035
414 1 3.25585 -1.8733 3.6116
558 1 -2.92814 -2.01685 0.965977
421 1 -1.12422 2.53922 -2.40332
565 1 -2.83331 -1.54346 -1.85378
423 2 -2.50968 3.65553 3.62179
567 2 2.93023 -2.46271 1.88783
396 2 -0.479922 -0.447412 4.20444
540 2 -0.741956 -2.09817 -1.82808
420 2 -3.26023 2.80726 2.81123
564 2 -3.91495 -3.71453 2.736
394 1 -1.60732 0.608848 0.0184543
538 1 3.42485 0.511984 -2.892
418 1 -2.0405 -2.64437 -2.58383
562 1 2.31024 -0.655531 2.54996
398 1 0.851889 -0.104246 1.05015
542 1 -1.07047 2.23676 3.32178
422 1 -3.31668 -0.236933 -1.46759
566 1 1.18852 -2.33684 -2.52043
425 1 1.32067 -1.04509 3.1539
569 1 -1.46537 0.289533 0.0387566
427 2 -0.77486 3.77745 -2.21764
571 2 0.295604 -1.25089 -0.404444
400 2 1.58959 1.50488 -3.51732
544 2 -1.69388 0.497623 -2.32889
424 2 -2.44013 3.09356 -0.379003
568 2 -2.02313 4.00596 3.5087
404 2 -0.0249688 2.03902 -2.77286
548 2 3.54136 2.24997 0.0989343
428 2 -3.60057 0.705217 -4.22271
572 2 -4.03492 0.607725 -0.474768
402 1 0.76403 -2.27028 -1.5507
546 1 1.52223 1.62189 -1.5382
426 1 1.44698 -2.56829 -0.123644
570 1 2.17315 2.15893 3.29341
429 1 -2.48798 -0.38822 0.501679
573 1 0.710371 -0.417269 3.76212
431 2 -4.32895 2.80319 3.16777
575 2 2.04639 0.757871 3.71013
408 2 -2.87047 1.64075 1.50241
552 2 -1.97454 3.81949 -0.749081
432 2 3.40433 3.60966 -2.04871
576 2 1.89367 -3.7055 -0.326612
406 1 -0.159037 -2.62502 -2.37344
550 1 3.6238 -1.00948 -0.740008
430 1 -0.0972816 -3.17887 3.55912
574 1 -0.0589049 -0.289016 3.10188
649 1 0.87911 -2.3726 -0.98379
793 1 -2.93809 -2.86139 -3.41316
673 1 2.45675 -3.6585 -3.43419
817 1 0.584917 -0.279606 2.70919
653 1 -2.17743 2.88007 2.6828
797 1 1.73445 1.28184 -1.13991
677 1 3.64609 1.01209 -0.451466
821 1 -3.26176 3.36951 0.245922
651 2 -2.79988 1.41018 4.20157
795 2 -3.74578 2.06414 -1.95425
675 2 3.06377 -2.26319 1.92358
819 2 -0.87275 0.820039 -0.434057
652 2 3.0488 4.1275 -0.163193
796 2 -2.10151 2.27946 -3.00498
650 1 -3.09507 -1.45793 0.878004
794 1 0.591853 -2.61433 2.95998
657 1 -1.52627 -0.695144 2.67983
801 1 2.78891 -1.84321 2.04711
681 1 3.86123 2.03535 3.19478
825 1 3.65949 -3.59517 -1.35254
655 2 1.54563 2.20739 -1.88139
799 2 3.53919 0.24574 3.25711
679 2 3.5092 3.43795 1.12659
823 2 1.10562 1.57888 2.00748
659 2 -0.183686 -0.0441673 -2.55482
803 2 1.78612 2.98118 2.52601
683 2 -2.83469 1.07206 -3.66592
827 2 3.79169 -3.61627 3.25157
656 2 4.24462 -0.651332 -0.953142
800 2 -1.0254 -2.45587 -3.47503
654 1 0.416117 0.66947 -3.73331
798 1 -1.12034 -3.57042 2.48425
661 1 -0.192292 1.28757 -0.0229781
805 1 -2.94474 -3.62063 -1.12844
685 1 -0.7451 0.980946 -0.744418
829 1 1.34789 -3.26325 -3.52485
663 2 1.62213 -1.82211 3.34547
807 2 1.03456 2.40211 3.39679
687 2 -1.75059 1.65674 3.71481
831 2 1.11201 -2.83036 -3.53348
660 2 3.46071 -3.28363 -3.50491
804 2 -1.83231 3.92232 -0.734943
658 1 1.57025 0.202364 1.53441
802 1 0.810099 3.06583 1.5033
662 1 1.79582 2.166 3.24722
806 1 2.28959 0.998214 -3.82685
665 1 0.987422 2.68921 -2.4051
809 1 3.82347 1.51764 -1.69781
689 1 -1.02698 -3.97806 0.44499
833 1 1.63225 3.75443 0.893841
667 2 -4.22514 2.0906 4.13889
811 2 2.67216 2.26873 -2.84175
691 2 -3.37204 -1.91274 2.04837
835 2 0.901504 1.68852 -3.85605
664 2 3.87304 -3.38484 -2.07186
808 2 1.04522 1.05492 0.589652
668 2 4.24002 -0.603788 -1.52148
812 2 -0.844612 0.830787 -0.355562
666 1 3.53103 1.49466 0.528257
810 1 -3.5871 -2.8494 -0.153885
669 1 3.53013 2.17069 2.74892
813 1 2.04503 -2.979 1.65943
693 1 0.36249 3.06274 -2.93063
837 1 -1.54664 -2.06228 -1.54583
671 2 0.572419 -0.511953 2.85071
815 2 -2.16613 -0.406284 -1.03005
695 2 -2.49559 -0.320978 -3.21186
839 2 -0.94587 1.46216 0.861161
672 2 2.48568 -2.09336 1.5682
816 2 -2.81113 1.6432 -0.290957
670 1 -3.91091 0.869679 0.0260039
814 1 -0.000693966 3.00963 0.195404
697 1 -2.64984 -1.81903 -3.78361
841 1 1.07271 1.34542 -2.78735
701 1 3.46524 -2.44613 -0.176857
845 1 -2.83693 0.918306 0.793311
699 2 -0.395881 1.90897 3.94797
843 2 1.3581 -2.62068 3.77711
676 2 -0.0513448 -2.74673 0.453712
820 2 1.12468 3.68293 -0.0560188
700 2 1.17253 -0.235034 -3.27938
844 2 -2.72084 -2.79111 2.58919
674 1 2.06666 -3.9598 -1.90456
818 1 2.35219 -1.1827 -2.83205
698 1 -3.45689 -2.25967 2.40639
842 1 -3.79479 2.37267 -3.40339
705 1 -3.67723 -3.51491 0.0386976
849 1 -0.639306 3.3623 -2.00051
703 2 -1.93121 1.3051 0.772724
847 2 -0.0166013 -3.50005 -3.81437
707 2 -3.47718 2.35764 3.9827
851 2 -2.48498 -2.62394 0.591362
680 2 3.26357 2.46401 3.30121
824 2 -2.86548 -0.448903 -3.6722
704 2 -1.63631 -3.58873 1.88833
848 2 0.0289337 -3.44534 4.24985
678 1 -0.20005 -2.26774 1.46391
822 1 0.28165 -0.0575282 1.43626
702 1 -2.516 -3.61538 -0.0962465
846 1 -2.7368 3.28663 2.55224
709 1 3.80711 -3.90568 -3.90785
853 1 1.42242 -3.17705 2.42539
711 2 -0.827853 -1.25246 -1.13004
855 2 -4.15833 -1.42753 -2.82021
684 2 3.31884 2.69003 1.63302
828 2 3.24991 -3.61044 -1.87608
708 2 0.159715 2.02705 2.36442
852 2 1.52138 -1.30191 1.78818
682 1 -1.72836 3.611 0.257623
826 1 3.85494 -0.688142 1.44796
706 1 -0.48794 2.71476 -1.06221
850 1 0.546684 -0.745187 1.89071
686 1 1.7872 -0.0133928 -1.94128
830 1 1.55972 -2.43752 1.76641
710 1 -0.0731531 -1.94199 -1.28277
854 1 -1.12205 -0.557821 3.82523
713 1 -1.81807 2.12002 -0.599892
857 1 -2.03303 -3.79969 1.71903
715 2 -2.93794 2.58416 2.05475
859 2 1.8198 1.49405 3.63027
688 2 -2.58265 -1.89742 1.5553
832 2 1.01937 -3.62883 -1.43658
712 2 0.663118 1.96056 2.66952
856 2 1.80025 -0.367068 -3.99131
692 2 0.109255 -3.4227 -2.08273
836 2 0.521342 0.857197 -3.58726
716 2 -3.62619 0.0505451 -1.41676
860 2 0.0344047 2.52229 2.63485
690 1 2.62645 2.5509 3.57017
834 1 -2.60271 -2.30735 1.62796
714 1 2.44293 1.92984 -2.30132
858 1 -1.1876 -0.297342 -2.07699
717 1 -3.19688 -0.252311 1.68012
861 1 3.32561 -2.66768 1.97588
719 2 -0.488572 0.35028 -2.40207
863 2 -0.579723 -1.12735 3.59895
696 2 -3.88352 -0.0053844 -4.20465
840 2 2.79133 1.78352 2.06747
720 2 -0.78531 0.108081 2.56979
864 2 2.34147 -1.15868 1.61306
694 1 -1.38208 -2.8868 -2.51877
838 1 -3.27421 0.2087 -2.9627
718 1 0.194678 -3.17946 1.63298
862 1 0.995549 -3.41066 0.221206
