LAMMPS data file via write_data, version 7 Feb 2024, timestep = 321, units = metal

4 atoms
1 atom types

0.9583182042693434 5.0416817957306215 xlo xhi
0.9583182042693434 5.0416817957306215 ylo yhi
0.9583182042693434 5.0416817957306215 zlo zhi

Masses

1 107.8681

Pair Coeffs # lj/cut

1 0.341 2.648

Atoms # atomic

1 1 0.9583182042693434 0.9583182042693434 0.9583182042693434 0 0 0
2 1 2.9999999999999853 2.9999999999999853 0.9583182042693434 0 0 0
3 1 2.9999999999999853 0.9583182042693434 2.9999999999999853 0 0 0
4 1 0.9583182042693434 2.9999999999999853 2.9999999999999853 0 0 0

Velocities

1 0 0 0
2 0 0 0
3 0 0 0
4 0 0 0
