ITEM: TIMESTEP
0
ITEM: NUMBER OF ATOMS
500
ITEM: BOX BOUNDS pp pp pp
0.0000000000000000e+00 1.7699999999999999e+01
0.0000000000000000e+00 1.7699999999999999e+01
0.0000000000000000e+00 1.7699999999999999e+01
ITEM: ATOMS id type xs ys zs
1 1 0 0 0
2 1 0 0.1 0.1
3 1 0.1 0 0.1
4 1 0.1 0.1 0
101 1 0 0 0.2
104 1 0.1 0.1 0.2
5 1 0.2 0 0
6 1 0.2 0.1 0.1
7 1 0.3 0 0.1
8 1 0.3 0.1 0
105 1 0.2 0 0.2
108 1 0.3 0.1 0.2
9 1 0.4 0 0
10 1 0.4 0.1 0.1
11 1 0.5 0 0.1
12 1 0.5 0.1 0
109 1 0.4 0 0.2
112 1 0.5 0.1 0.2
13 1 0.6 0 0
14 1 0.6 0.1 0.1
15 1 0.7 0 0.1
16 1 0.7 0.1 0
113 1 0.6 0 0.2
116 1 0.7 0.1 0.2
17 1 0.8 0 0
18 1 0.8 0.1 0.1
19 1 0.9 0 0.1
20 1 0.9 0.1 0
117 1 0.8 0 0.2
120 1 0.9 0.1 0.2
21 1 0 0.2 0
22 1 0 0.3 0.1
23 1 0.1 0.2 0.1
24 1 0.1 0.3 0
121 1 0 0.2 0.2
124 1 0.1 0.3 0.2
25 1 0.2 0.2 0
26 1 0.2 0.3 0.1
27 1 0.3 0.2 0.1
28 1 0.3 0.3 0
125 1 0.2 0.2 0.2
128 1 0.3 0.3 0.2
29 1 0.4 0.2 0
30 1 0.4 0.3 0.1
31 1 0.5 0.2 0.1
32 1 0.5 0.3 0
129 1 0.4 0.2 0.2
132 1 0.5 0.3 0.2
33 1 0.6 0.2 0
34 1 0.6 0.3 0.1
35 1 0.7 0.2 0.1
36 1 0.7 0.3 0
133 1 0.6 0.2 0.2
136 1 0.7 0.3 0.2
37 1 0.8 0.2 0
38 1 0.8 0.3 0.1
39 1 0.9 0.2 0.1
40 1 0.9 0.3 0
137 1 0.8 0.2 0.2
140 1 0.9 0.3 0.2
41 1 0 0.4 0
42 1 0 0.5 0.1
43 1 0.1 0.4 0.1
44 1 0.1 0.5 0
141 1 0 0.4 0.2
144 1 0.1 0.5 0.2
45 1 0.2 0.4 0
46 1 0.2 0.5 0.1
47 1 0.3 0.4 0.1
48 1 0.3 0.5 0
145 1 0.2 0.4 0.2
148 1 0.3 0.5 0.2
49 1 0.4 0.4 0
50 1 0.4 0.5 0.1
51 1 0.5 0.4 0.1
52 1 0.5 0.5 0
149 1 0.4 0.4 0.2
152 1 0.5 0.5 0.2
53 1 0.6 0.4 0
54 1 0.6 0.5 0.1
55 1 0.7 0.4 0.1
56 1 0.7 0.5 0
153 1 0.6 0.4 0.2
156 1 0.7 0.5 0.2
57 1 0.8 0.4 0
58 1 0.8 0.5 0.1
59 1 0.9 0.4 0.1
60 1 0.9 0.5 0
157 1 0.8 0.4 0.2
160 1 0.9 0.5 0.2
61 1 0 0.6 0
62 1 0 0.7 0.1
63 1 0.1 0.6 0.1
64 1 0.1 0.7 0
161 1 0 0.6 0.2
164 1 0.1 0.7 0.2
65 1 0.2 0.6 0
66 1 0.2 0.7 0.1
67 1 0.3 0.6 0.1
68 1 0.3 0.7 0
165 1 0.2 0.6 0.2
168 1 0.3 0.7 0.2
69 1 0.4 0.6 0
70 1 0.4 0.7 0.1
71 1 0.5 0.6 0.1
72 1 0.5 0.7 0
169 1 0.4 0.6 0.2
172 1 0.5 0.7 0.2
73 1 0.6 0.6 0
74 1 0.6 0.7 0.1
75 1 0.7 0.6 0.1
76 1 0.7 0.7 0
173 1 0.6 0.6 0.2
176 1 0.7 0.7 0.2
77 1 0.8 0.6 0
78 1 0.8 0.7 0.1
79 1 0.9 0.6 0.1
80 1 0.9 0.7 0
177 1 0.8 0.6 0.2
180 1 0.9 0.7 0.2
81 1 0 0.8 0
82 1 0 0.9 0.1
83 1 0.1 0.8 0.1
84 1 0.1 0.9 0
181 1 0 0.8 0.2
184 1 0.1 0.9 0.2
85 1 0.2 0.8 0
86 1 0.2 0.9 0.1
87 1 0.3 0.8 0.1
88 1 0.3 0.9 0
185 1 0.2 0.8 0.2
188 1 0.3 0.9 0.2
89 1 0.4 0.8 0
90 1 0.4 0.9 0.1
91 1 0.5 0.8 0.1
92 1 0.5 0.9 0
189 1 0.4 0.8 0.2
192 1 0.5 0.9 0.2
93 1 0.6 0.8 0
94 1 0.6 0.9 0.1
95 1 0.7 0.8 0.1
96 1 0.7 0.9 0
193 1 0.6 0.8 0.2
196 1 0.7 0.9 0.2
97 1 0.8 0.8 0
98 1 0.8 0.9 0.1
99 1 0.9 0.8 0.1
100 1 0.9 0.9 0
197 1 0.8 0.8 0.2
200 1 0.9 0.9 0.2
102 1 0 0.1 0.3
103 1 0.1 0 0.3
201 1 0 0 0.4
202 1 0.1 0.1 0.4
106 1 0.2 0.1 0.3
107 1 0.3 0 0.3
203 1 0.2 0 0.4
204 1 0.3 0.1 0.4
110 1 0.4 0.1 0.3
111 1 0.5 0 0.3
205 1 0.4 0 0.4
206 1 0.5 0.1 0.4
114 1 0.6 0.1 0.3
115 1 0.7 0 0.3
207 1 0.6 0 0.4
208 1 0.7 0.1 0.4
118 1 0.8 0.1 0.3
119 1 0.9 0 0.3
209 1 0.8 0 0.4
210 1 0.9 0.1 0.4
122 1 0 0.3 0.3
123 1 0.1 0.2 0.3
211 1 0 0.2 0.4
212 1 0.1 0.3 0.4
126 1 0.2 0.3 0.3
127 1 0.3 0.2 0.3
213 1 0.2 0.2 0.4
214 1 0.3 0.3 0.4
130 1 0.4 0.3 0.3
131 1 0.5 0.2 0.3
215 1 0.4 0.2 0.4
216 1 0.5 0.3 0.4
134 1 0.6 0.3 0.3
135 1 0.7 0.2 0.3
217 1 0.6 0.2 0.4
218 1 0.7 0.3 0.4
138 1 0.8 0.3 0.3
139 1 0.9 0.2 0.3
219 1 0.8 0.2 0.4
220 1 0.9 0.3 0.4
142 1 0 0.5 0.3
143 1 0.1 0.4 0.3
221 1 0 0.4 0.4
222 1 0.1 0.5 0.4
146 1 0.2 0.5 0.3
147 1 0.3 0.4 0.3
223 1 0.2 0.4 0.4
224 1 0.3 0.5 0.4
150 1 0.4 0.5 0.3
151 1 0.5 0.4 0.3
225 1 0.4 0.4 0.4
226 1 0.5 0.5 0.4
154 1 0.6 0.5 0.3
155 1 0.7 0.4 0.3
227 1 0.6 0.4 0.4
228 1 0.7 0.5 0.4
158 1 0.8 0.5 0.3
159 1 0.9 0.4 0.3
229 1 0.8 0.4 0.4
230 1 0.9 0.5 0.4
162 1 0 0.7 0.3
163 1 0.1 0.6 0.3
231 1 0 0.6 0.4
232 1 0.1 0.7 0.4
166 1 0.2 0.7 0.3
167 1 0.3 0.6 0.3
233 1 0.2 0.6 0.4
234 1 0.3 0.7 0.4
170 1 0.4 0.7 0.3
171 1 0.5 0.6 0.3
235 1 0.4 0.6 0.4
236 1 0.5 0.7 0.4
174 1 0.6 0.7 0.3
175 1 0.7 0.6 0.3
237 1 0.6 0.6 0.4
238 1 0.7 0.7 0.4
178 1 0.8 0.7 0.3
179 1 0.9 0.6 0.3
239 1 0.8 0.6 0.4
240 1 0.9 0.7 0.4
182 1 0 0.9 0.3
183 1 0.1 0.8 0.3
241 1 0 0.8 0.4
242 1 0.1 0.9 0.4
186 1 0.2 0.9 0.3
187 1 0.3 0.8 0.3
243 1 0.2 0.8 0.4
244 1 0.3 0.9 0.4
190 1 0.4 0.9 0.3
191 1 0.5 0.8 0.3
245 1 0.4 0.8 0.4
246 1 0.5 0.9 0.4
194 1 0.6 0.9 0.3
195 1 0.7 0.8 0.3
247 1 0.6 0.8 0.4
248 1 0.7 0.9 0.4
198 1 0.8 0.9 0.3
199 1 0.9 0.8 0.3
249 1 0.8 0.8 0.4
250 1 0.9 0.9 0.4
251 1 0 0.1 0.5
252 1 0.1 0 0.5
301 1 0 0 0.6
302 1 0 0.1 0.7
303 1 0.1 0 0.7
304 1 0.1 0.1 0.6
253 1 0.2 0.1 0.5
254 1 0.3 0 0.5
305 1 0.2 0 0.6
306 1 0.2 0.1 0.7
307 1 0.3 0 0.7
308 1 0.3 0.1 0.6
255 1 0.4 0.1 0.5
256 1 0.5 0 0.5
309 1 0.4 0 0.6
310 1 0.4 0.1 0.7
311 1 0.5 0 0.7
312 1 0.5 0.1 0.6
257 1 0.6 0.1 0.5
258 1 0.7 0 0.5
313 1 0.6 0 0.6
314 1 0.6 0.1 0.7
315 1 0.7 0 0.7
316 1 0.7 0.1 0.6
259 1 0.8 0.1 0.5
260 1 0.9 0 0.5
317 1 0.8 0 0.6
318 1 0.8 0.1 0.7
319 1 0.9 0 0.7
320 1 0.9 0.1 0.6
261 1 0 0.3 0.5
262 1 0.1 0.2 0.5
321 1 0 0.2 0.6
322 1 0 0.3 0.7
323 1 0.1 0.2 0.7
324 1 0.1 0.3 0.6
263 1 0.2 0.3 0.5
264 1 0.3 0.2 0.5
325 1 0.2 0.2 0.6
326 1 0.2 0.3 0.7
327 1 0.3 0.2 0.7
328 1 0.3 0.3 0.6
265 1 0.4 0.3 0.5
266 1 0.5 0.2 0.5
329 1 0.4 0.2 0.6
330 1 0.4 0.3 0.7
331 1 0.5 0.2 0.7
332 1 0.5 0.3 0.6
267 1 0.6 0.3 0.5
268 1 0.7 0.2 0.5
333 1 0.6 0.2 0.6
334 1 0.6 0.3 0.7
335 1 0.7 0.2 0.7
336 1 0.7 0.3 0.6
269 1 0.8 0.3 0.5
270 1 0.9 0.2 0.5
337 1 0.8 0.2 0.6
338 1 0.8 0.3 0.7
339 1 0.9 0.2 0.7
340 1 0.9 0.3 0.6
271 1 0 0.5 0.5
272 1 0.1 0.4 0.5
341 1 0 0.4 0.6
342 1 0 0.5 0.7
343 1 0.1 0.4 0.7
344 1 0.1 0.5 0.6
273 1 0.2 0.5 0.5
274 1 0.3 0.4 0.5
345 1 0.2 0.4 0.6
346 1 0.2 0.5 0.7
347 1 0.3 0.4 0.7
348 1 0.3 0.5 0.6
275 1 0.4 0.5 0.5
276 1 0.5 0.4 0.5
349 1 0.4 0.4 0.6
350 1 0.4 0.5 0.7
351 1 0.5 0.4 0.7
352 1 0.5 0.5 0.6
277 1 0.6 0.5 0.5
278 1 0.7 0.4 0.5
353 1 0.6 0.4 0.6
354 1 0.6 0.5 0.7
355 1 0.7 0.4 0.7
356 1 0.7 0.5 0.6
279 1 0.8 0.5 0.5
280 1 0.9 0.4 0.5
357 1 0.8 0.4 0.6
358 1 0.8 0.5 0.7
359 1 0.9 0.4 0.7
360 1 0.9 0.5 0.6
281 1 0 0.7 0.5
282 1 0.1 0.6 0.5
361 1 0 0.6 0.6
362 1 0 0.7 0.7
363 1 0.1 0.6 0.7
364 1 0.1 0.7 0.6
283 1 0.2 0.7 0.5
284 1 0.3 0.6 0.5
365 1 0.2 0.6 0.6
366 1 0.2 0.7 0.7
367 1 0.3 0.6 0.7
368 1 0.3 0.7 0.6
285 1 0.4 0.7 0.5
286 1 0.5 0.6 0.5
369 1 0.4 0.6 0.6
370 1 0.4 0.7 0.7
371 1 0.5 0.6 0.7
372 1 0.5 0.7 0.6
287 1 0.6 0.7 0.5
288 1 0.7 0.6 0.5
373 1 0.6 0.6 0.6
374 1 0.6 0.7 0.7
375 1 0.7 0.6 0.7
376 1 0.7 0.7 0.6
289 1 0.8 0.7 0.5
290 1 0.9 0.6 0.5
377 1 0.8 0.6 0.6
378 1 0.8 0.7 0.7
379 1 0.9 0.6 0.7
380 1 0.9 0.7 0.6
291 1 0 0.9 0.5
292 1 0.1 0.8 0.5
381 1 0 0.8 0.6
382 1 0 0.9 0.7
383 1 0.1 0.8 0.7
384 1 0.1 0.9 0.6
293 1 0.2 0.9 0.5
294 1 0.3 0.8 0.5
385 1 0.2 0.8 0.6
386 1 0.2 0.9 0.7
387 1 0.3 0.8 0.7
388 1 0.3 0.9 0.6
295 1 0.4 0.9 0.5
296 1 0.5 0.8 0.5
389 1 0.4 0.8 0.6
390 1 0.4 0.9 0.7
391 1 0.5 0.8 0.7
392 1 0.5 0.9 0.6
297 1 0.6 0.9 0.5
298 1 0.7 0.8 0.5
393 1 0.6 0.8 0.6
394 1 0.6 0.9 0.7
395 1 0.7 0.8 0.7
396 1 0.7 0.9 0.6
299 1 0.8 0.9 0.5
300 1 0.9 0.8 0.5
397 1 0.8 0.8 0.6
398 1 0.8 0.9 0.7
399 1 0.9 0.8 0.7
400 1 0.9 0.9 0.6
401 1 0 0 0.8
402 1 0 0.1 0.9
403 1 0.1 0 0.9
404 1 0.1 0.1 0.8
405 1 0.2 0 0.8
406 1 0.2 0.1 0.9
407 1 0.3 0 0.9
408 1 0.3 0.1 0.8
409 1 0.4 0 0.8
410 1 0.4 0.1 0.9
411 1 0.5 0 0.9
412 1 0.5 0.1 0.8
413 1 0.6 0 0.8
414 1 0.6 0.1 0.9
415 1 0.7 0 0.9
416 1 0.7 0.1 0.8
417 1 0.8 0 0.8
418 1 0.8 0.1 0.9
419 1 0.9 0 0.9
420 1 0.9 0.1 0.8
421 1 0 0.2 0.8
422 1 0 0.3 0.9
423 1 0.1 0.2 0.9
424 1 0.1 0.3 0.8
425 1 0.2 0.2 0.8
426 1 0.2 0.3 0.9
427 1 0.3 0.2 0.9
428 1 0.3 0.3 0.8
429 1 0.4 0.2 0.8
430 1 0.4 0.3 0.9
431 1 0.5 0.2 0.9
432 1 0.5 0.3 0.8
433 1 0.6 0.2 0.8
434 1 0.6 0.3 0.9
435 1 0.7 0.2 0.9
436 1 0.7 0.3 0.8
437 1 0.8 0.2 0.8
438 1 0.8 0.3 0.9
439 1 0.9 0.2 0.9
440 1 0.9 0.3 0.8
441 1 0 0.4 0.8
442 1 0 0.5 0.9
443 1 0.1 0.4 0.9
444 1 0.1 0.5 0.8
445 1 0.2 0.4 0.8
446 1 0.2 0.5 0.9
447 1 0.3 0.4 0.9
448 1 0.3 0.5 0.8
449 1 0.4 0.4 0.8
450 1 0.4 0.5 0.9
451 1 0.5 0.4 0.9
452 1 0.5 0.5 0.8
453 1 0.6 0.4 0.8
454 1 0.6 0.5 0.9
455 1 0.7 0.4 0.9
456 1 0.7 0.5 0.8
457 1 0.8 0.4 0.8
458 1 0.8 0.5 0.9
459 1 0.9 0.4 0.9
460 1 0.9 0.5 0.8
461 1 0 0.6 0.8
462 1 0 0.7 0.9
463 1 0.1 0.6 0.9
464 1 0.1 0.7 0.8
465 1 0.2 0.6 0.8
466 1 0.2 0.7 0.9
467 1 0.3 0.6 0.9
468 1 0.3 0.7 0.8
469 1 0.4 0.6 0.8
470 1 0.4 0.7 0.9
471 1 0.5 0.6 0.9
472 1 0.5 0.7 0.8
473 1 0.6 0.6 0.8
474 1 0.6 0.7 0.9
475 1 0.7 0.6 0.9
476 1 0.7 0.7 0.8
477 1 0.8 0.6 0.8
478 1 0.8 0.7 0.9
479 1 0.9 0.6 0.9
480 1 0.9 0.7 0.8
481 1 0 0.8 0.8
482 1 0 0.9 0.9
483 1 0.1 0.8 0.9
484 1 0.1 0.9 0.8
485 1 0.2 0.8 0.8
486 1 0.2 0.9 0.9
487 1 0.3 0.8 0.9
488 1 0.3 0.9 0.8
489 1 0.4 0.8 0.8
490 1 0.4 0.9 0.9
491 1 0.5 0.8 0.9
492 1 0.5 0.9 0.8
493 1 0.6 0.8 0.8
494 1 0.6 0.9 0.9
495 1 0.7 0.8 0.9
496 1 0.7 0.9 0.8
497 1 0.8 0.8 0.8
498 1 0.8 0.9 0.9
499 1 0.9 0.8 0.9
500 1 0.9 0.9 0.8
ITEM: TIMESTEP
1000
ITEM: NUMBER OF ATOMS
500
ITEM: BOX BOUNDS pp pp pp
0.0000000000000000e+00 1.7699999999999999e+01
0.0000000000000000e+00 1.7699999999999999e+01
0.0000000000000000e+00 1.7699999999999999e+01
ITEM: ATOMS id type xs ys zs
1 1 -0.00700252 -0.00965109 -0.0185232
2 1 -0.00552691 0.105869 0.0944281
3 1 0.0898456 -0.0041706 0.100516
4 1 0.0965728 0.0930032 -0.00381179
101 1 0.00278493 0.00644009 0.194381
104 1 0.0932219 0.0939545 0.201218
5 1 0.196551 0.00111001 -0.00503636
6 1 0.190476 0.104857 0.10137
7 1 0.299452 0.00859312 0.10014
8 1 0.290335 0.0952526 -0.00472763
105 1 0.192618 -0.000699196 0.205811
108 1 0.30483 0.0984305 0.20149
9 1 0.395578 0.0046089 0.0062257
10 1 0.39415 0.105773 0.0960436
11 1 0.49776 -0.000581721 0.0926019
12 1 0.504974 0.0972393 0.00360598
109 1 0.39735 0.000920207 0.199792
112 1 0.496991 0.0987878 0.190929
13 1 0.598717 -0.00495119 -0.000581221
14 1 0.596533 0.0886121 0.0998474
15 1 0.72243 0.00336935 0.0939023
16 1 0.701968 0.110044 -0.0103723
113 1 0.593835 0.000630617 0.196947
116 1 0.714006 0.0955156 0.19626
17 1 0.816421 0.0138956 -0.0140769
18 1 0.807454 0.105411 0.102573
19 1 0.896593 -0.00586845 0.0892719
20 1 0.903703 0.100982 0.000316722
117 1 0.800374 -0.0073857 0.205231
120 1 0.908183 0.0987352 0.206409
21 1 0.0100997 0.193848 -0.00354255
22 1 0.00814199 0.30618 0.0981089
23 1 0.102282 0.206712 0.0951229
24 1 0.102663 0.30035 -0.00790611
121 1 -0.00222021 0.206049 0.197084
124 1 0.0994895 0.297403 0.196591
25 1 0.198514 0.197817 -0.0109755
26 1 0.197855 0.302034 0.0952668
27 1 0.300181 0.194257 0.087031
28 1 0.301328 0.305858 -0.00368186
125 1 0.199045 0.192098 0.200545
128 1 0.301837 0.2853 0.189835
29 1 0.386074 0.203283 -0.00466499
30 1 0.402035 0.295909 0.0986921
31 1 0.491053 0.18918 0.0848791
32 1 0.511217 0.303287 -0.00306419
129 1 0.412216 0.200095 0.202072
132 1 0.500076 0.298438 0.198804
33 1 0.590453 0.202965 -0.0121463
34 1 0.598755 0.290655 0.0915937
35 1 0.703899 0.19348 0.0978593
36 1 0.694719 0.30129 -0.00199246
133 1 0.604173 0.187802 0.197049
136 1 0.693227 0.293435 0.19373
37 1 0.805678 0.19744 -0.00279829
38 1 0.800929 0.294453 0.100488
39 1 0.899517 0.209428 0.0947623
40 1 0.896032 0.300974 -0.00469251
137 1 0.814 0.203857 0.204516
140 1 0.900965 0.310676 0.199711
41 1 3.53447e-05 0.399584 -0.00304411
42 1 -0.00303903 0.508155 0.0973612
43 1 0.102323 0.403392 0.0946754
44 1 0.0921684 0.501477 0.000720977
141 1 0.00949699 0.4009 0.193368
144 1 0.0975735 0.497959 0.194288
45 1 0.199213 0.414684 0.00523378
46 1 0.212393 0.511597 0.0884912
47 1 0.303286 0.399927 0.0994154
48 1 0.299182 0.503173 -0.00136536
145 1 0.201531 0.393086 0.194746
148 1 0.289439 0.491752 0.206071
49 1 0.406791 0.397034 0.00279655
50 1 0.392434 0.493933 0.0924696
51 1 0.499753 0.397712 0.10709
52 1 0.509307 0.490727 0.0114801
149 1 0.396238 0.39465 0.195941
152 1 0.486445 0.490098 0.205939
53 1 0.606507 0.397454 -0.00119249
54 1 0.602718 0.491914 0.0953444
55 1 0.708132 0.390595 0.101528
56 1 0.70555 0.494872 0.0114567
153 1 0.597791 0.384254 0.19067
156 1 0.692408 0.490909 0.194067
57 1 0.799239 0.386853 -0.00505813
58 1 0.791953 0.513585 0.111262
59 1 0.895926 0.401852 0.0942636
60 1 0.887683 0.496267 0.0108939
157 1 0.789188 0.393195 0.204073
160 1 0.893902 0.49938 0.201554
61 1 0.00295778 0.598962 -0.000691905
62 1 0.00222062 0.702639 0.0951371
63 1 0.0987195 0.599939 0.0950037
64 1 0.0952736 0.708447 -0.000186246
161 1 -0.00355339 0.596942 0.207578
164 1 0.0971126 0.695385 0.193845
65 1 0.211112 0.607394 0.00607798
66 1 0.196839 0.704406 0.109161
67 1 0.307009 0.615669 0.0992128
68 1 0.302959 0.70448 -0.0080342
165 1 0.196851 0.601205 0.203784
168 1 0.304365 0.690464 0.203027
69 1 0.401893 0.602313 -0.012651
70 1 0.400824 0.712815 0.0968708
71 1 0.494989 0.59947 0.103847
72 1 0.495231 0.702268 -0.00359557
169 1 0.406363 0.596709 0.204508
172 1 0.502832 0.699419 0.196813
73 1 0.597692 0.602005 -0.0124657
74 1 0.591262 0.689997 0.097566
75 1 0.698777 0.609267 0.0897576
76 1 0.691948 0.702867 -0.00302163
173 1 0.592473 0.599447 0.208905
176 1 0.691711 0.687378 0.208612
77 1 0.793999 0.607281 -0.000361965
78 1 0.811229 0.69137 0.100552
79 1 0.905092 0.602579 0.096194
80 1 0.900498 0.706166 -0.00858033
177 1 0.803564 0.598344 0.209201
180 1 0.907279 0.695274 0.211857
81 1 0.00293631 0.807911 -0.00862451
82 1 0.00205589 0.902892 0.0994393
83 1 0.104906 0.797377 0.0998751
84 1 0.0983182 0.910179 0.000568535
181 1 0.00768328 0.796577 0.203818
184 1 0.0932516 0.898895 0.196073
85 1 0.197719 0.799861 0.0058216
86 1 0.203324 0.910683 0.100169
87 1 0.29285 0.796883 0.104861
88 1 0.295261 0.90974 0.00721281
185 1 0.189462 0.801039 0.205045
188 1 0.284402 0.90168 0.203278
89 1 0.398384 0.809712 -0.00238234
90 1 0.398429 0.905011 0.0982488
91 1 0.503903 0.80105 0.100118
92 1 0.508181 0.895871 0.0110958
189 1 0.401689 0.805225 0.194943
192 1 0.508475 0.899231 0.191691
93 1 0.604468 0.7935 -0.00956775
94 1 0.622549 0.900309 0.104558
95 1 0.69067 0.785228 0.0985263
96 1 0.707261 0.883341 0.00768473
193 1 0.598749 0.795591 0.196585
196 1 0.700883 0.89622 0.205367
97 1 0.801083 0.790576 0.011206
98 1 0.793921 0.889892 0.102576
99 1 0.903625 0.802879 0.0976047
100 1 0.890379 0.89374 -0.00960471
197 1 0.782436 0.799286 0.202072
200 1 0.898488 0.898985 0.208286
102 1 -0.00279802 0.0932783 0.299851
103 1 0.0962975 0.00213998 0.301012
201 1 -0.00411522 0.0017612 0.408626
202 1 0.0961673 0.100076 0.401092
106 1 0.205138 0.0917857 0.298641
107 1 0.301454 0.00016664 0.299677
203 1 0.206699 0.00419162 0.396874
204 1 0.298527 0.0892958 0.407502
110 1 0.399628 0.101599 0.303347
111 1 0.491616 -0.00562782 0.302565
205 1 0.392053 -0.00420597 0.403868
206 1 0.484979 0.091639 0.407948
114 1 0.595301 0.0912904 0.289434
115 1 0.697966 0.00604243 0.299446
207 1 0.603715 0.00712333 0.409143
208 1 0.706834 0.106396 0.410813
118 1 0.80927 0.0994265 0.298907
119 1 0.899035 -0.01065 0.301539
209 1 0.796562 0.0114243 0.403708
210 1 0.897192 0.107592 0.398532
122 1 0.00642264 0.298358 0.289653
123 1 0.0918376 0.195963 0.304556
211 1 -0.00238682 0.187393 0.401171
212 1 0.103875 0.297311 0.404073
126 1 0.194188 0.289248 0.281685
127 1 0.308405 0.203695 0.303549
213 1 0.197797 0.187069 0.401187
214 1 0.290314 0.293811 0.402584
130 1 0.393193 0.289777 0.306013
131 1 0.50041 0.202055 0.304038
215 1 0.406296 0.196683 0.40559
216 1 0.501498 0.304571 0.407022
134 1 0.604974 0.290471 0.293634
135 1 0.712587 0.191673 0.297363
217 1 0.597707 0.19003 0.395812
218 1 0.702715 0.287272 0.396444
138 1 0.800952 0.29949 0.299364
139 1 0.909755 0.216104 0.303263
219 1 0.807468 0.209145 0.397451
220 1 0.896396 0.307185 0.400348
142 1 -0.00900969 0.496214 0.298846
143 1 0.101016 0.395645 0.29764
221 1 0.0127484 0.403349 0.398325
222 1 0.102298 0.506803 0.410953
146 1 0.183399 0.499911 0.303788
147 1 0.309482 0.39174 0.291728
223 1 0.204725 0.403333 0.399331
224 1 0.296685 0.502731 0.408931
150 1 0.39288 0.501072 0.305608
151 1 0.500981 0.393933 0.303488
225 1 0.393138 0.39674 0.415229
226 1 0.495875 0.489856 0.414518
154 1 0.601853 0.499364 0.2963
155 1 0.702212 0.397838 0.304403
227 1 0.598092 0.392283 0.393325
228 1 0.691687 0.497659 0.402568
158 1 0.801896 0.494961 0.304896
159 1 0.899118 0.394183 0.293182
229 1 0.800497 0.405277 0.404676
230 1 0.897576 0.494948 0.396286
162 1 0.00335586 0.689962 0.307084
163 1 0.0990567 0.597321 0.30649
231 1 -0.00767375 0.597893 0.402353
232 1 0.0974037 0.711308 0.400143
166 1 0.192445 0.708625 0.296905
167 1 0.286315 0.594026 0.310708
233 1 0.19564 0.618783 0.401297
234 1 0.310518 0.704989 0.401476
170 1 0.403789 0.71334 0.295427
171 1 0.494052 0.594311 0.302219
235 1 0.398957 0.607938 0.403917
236 1 0.493283 0.704808 0.404127
174 1 0.598634 0.698509 0.309139
175 1 0.699568 0.598055 0.315194
237 1 0.597802 0.595778 0.413205
238 1 0.688064 0.707662 0.40302
178 1 0.79777 0.708761 0.307882
179 1 0.899024 0.606402 0.323218
239 1 0.787721 0.603083 0.408365
240 1 0.893289 0.713691 0.410657
182 1 0.00157203 0.895708 0.30539
183 1 0.10094 0.811865 0.300806
241 1 -0.00360204 0.80187 0.401908
242 1 0.08574 0.906104 0.406491
186 1 0.204242 0.904884 0.307584
187 1 0.296489 0.796578 0.290251
243 1 0.204962 0.797529 0.392995
244 1 0.293056 0.904439 0.398841
190 1 0.391341 0.899545 0.300478
191 1 0.492494 0.819468 0.307099
245 1 0.401043 0.806526 0.397745
246 1 0.505041 0.902651 0.403605
194 1 0.592891 0.912284 0.309621
195 1 0.685541 0.805298 0.301729
247 1 0.592452 0.805417 0.400916
248 1 0.700165 0.907261 0.396975
198 1 0.797694 0.903068 0.303655
199 1 0.896556 0.797279 0.299658
249 1 0.790747 0.806146 0.395765
250 1 0.894385 0.904571 0.411822
251 1 -0.00238768 0.102389 0.504271
252 1 0.095759 0.00509609 0.502048
301 1 -0.00448656 0.0050197 0.601466
302 1 0.00560704 0.102673 0.704409
303 1 0.108816 -0.00567134 0.700094
304 1 0.104719 0.0943678 0.592408
253 1 0.204317 0.102189 0.504589
254 1 0.293634 0.00255046 0.501407
305 1 0.201725 -0.00867185 0.591379
306 1 0.196838 0.0973161 0.695557
307 1 0.292908 -0.00454641 0.695351
308 1 0.300177 0.0971866 0.593314
255 1 0.390586 0.0979997 0.503302
256 1 0.495157 -0.0030285 0.502003
309 1 0.398908 -0.00749799 0.598227
310 1 0.396366 0.0965167 0.695154
311 1 0.505365 -0.00380312 0.697575
312 1 0.497771 0.0950492 0.606352
257 1 0.58419 0.102594 0.500996
258 1 0.69878 0.00890674 0.495833
313 1 0.607307 -0.000832475 0.598372
314 1 0.600951 0.106817 0.684372
315 1 0.706676 0.00746081 0.699365
316 1 0.703526 0.10681 0.597977
259 1 0.808195 0.108548 0.498657
260 1 0.898344 -0.00142324 0.512466
317 1 0.800983 0.00871859 0.59665
318 1 0.800894 0.107585 0.70511
319 1 0.898011 -0.000472093 0.691993
320 1 0.90078 0.105368 0.604774
261 1 0.00861171 0.293419 0.485696
262 1 0.0942736 0.197265 0.501486
321 1 0.00634556 0.193125 0.599787
322 1 -0.00108071 0.311181 0.70098
323 1 0.106143 0.214964 0.709547
324 1 0.113163 0.297734 0.601063
263 1 0.201285 0.286639 0.505052
264 1 0.303112 0.204197 0.493977
325 1 0.202587 0.192105 0.603609
326 1 0.206461 0.293569 0.701327
327 1 0.293514 0.187065 0.697194
328 1 0.295974 0.29976 0.604971
265 1 0.39548 0.295608 0.509316
266 1 0.494212 0.196106 0.507669
329 1 0.396848 0.196951 0.612951
330 1 0.392265 0.307985 0.706767
331 1 0.511053 0.199959 0.706699
332 1 0.500188 0.299448 0.617449
267 1 0.592583 0.295887 0.502131
268 1 0.697558 0.198884 0.502375
333 1 0.593041 0.202409 0.593486
334 1 0.611465 0.29664 0.703749
335 1 0.708093 0.197566 0.695641
336 1 0.696776 0.293415 0.60126
269 1 0.802113 0.289465 0.508272
270 1 0.901788 0.198754 0.488213
337 1 0.804745 0.205572 0.603045
338 1 0.807014 0.309216 0.703339
339 1 0.905396 0.194363 0.702444
340 1 0.901305 0.288163 0.596461
271 1 0.00445682 0.499698 0.501048
272 1 0.108496 0.392146 0.502693
341 1 0.00586794 0.412557 0.596475
342 1 0.00449087 0.493499 0.704095
343 1 0.106332 0.387813 0.69894
344 1 0.103788 0.504998 0.603122
273 1 0.194165 0.512226 0.508631
274 1 0.297098 0.408335 0.507048
345 1 0.200681 0.414314 0.602214
346 1 0.19446 0.505439 0.698995
347 1 0.291274 0.403096 0.701236
348 1 0.304933 0.503548 0.611315
275 1 0.403059 0.503269 0.508153
276 1 0.509675 0.396861 0.510197
349 1 0.402685 0.398873 0.611012
350 1 0.407515 0.50554 0.701115
351 1 0.509493 0.391499 0.704629
352 1 0.501875 0.496518 0.59884
277 1 0.605629 0.495668 0.509236
278 1 0.696838 0.394361 0.48567
353 1 0.610457 0.39784 0.601587
354 1 0.598471 0.490169 0.691412
355 1 0.703541 0.401848 0.703884
356 1 0.710371 0.492283 0.601334
279 1 0.801737 0.508391 0.494357
280 1 0.915239 0.397446 0.505508
357 1 0.813077 0.391342 0.590895
358 1 0.809407 0.493787 0.694977
359 1 0.901443 0.405755 0.697885
360 1 0.90425 0.517133 0.589542
281 1 0.00873615 0.700034 0.495437
282 1 0.097514 0.601165 0.502789
361 1 0.000662365 0.601883 0.60975
362 1 -0.00557887 0.702328 0.689
363 1 0.105335 0.608156 0.703532
364 1 0.102644 0.702322 0.595935
283 1 0.198906 0.705842 0.502828
284 1 0.290567 0.610946 0.496072
365 1 0.200042 0.608287 0.600203
366 1 0.195317 0.698758 0.70017
367 1 0.289952 0.606587 0.702776
368 1 0.301587 0.709004 0.612628
285 1 0.402694 0.703404 0.514848
286 1 0.489601 0.607568 0.497812
369 1 0.397458 0.601146 0.604399
370 1 0.407266 0.695451 0.711988
371 1 0.505031 0.588064 0.701955
372 1 0.507316 0.693184 0.606499
287 1 0.595289 0.696411 0.502638
288 1 0.704048 0.597881 0.513684
373 1 0.596594 0.596295 0.597357
374 1 0.60194 0.696403 0.698531
375 1 0.688226 0.589272 0.704476
376 1 0.70963 0.694252 0.604121
289 1 0.791556 0.701249 0.499546
290 1 0.905793 0.606277 0.497257
377 1 0.797722 0.601314 0.606756
378 1 0.806881 0.69002 0.695024
379 1 0.897367 0.59553 0.700248
380 1 0.896559 0.689419 0.594574
291 1 -0.0120247 0.907552 0.502558
292 1 0.0933742 0.809626 0.497772
381 1 -0.0112436 0.806913 0.610096
382 1 0.0023548 0.9036 0.697411
383 1 0.0918892 0.796298 0.695179
384 1 0.0960312 0.910145 0.596531
293 1 0.19518 0.894128 0.502679
294 1 0.309368 0.796888 0.505372
385 1 0.192037 0.794097 0.59919
386 1 0.201212 0.890233 0.693379
387 1 0.298889 0.799981 0.705778
388 1 0.299095 0.88983 0.603297
295 1 0.391987 0.897773 0.500843
296 1 0.503126 0.810519 0.503282
389 1 0.410459 0.801843 0.606051
390 1 0.391748 0.894009 0.693045
391 1 0.510319 0.801996 0.697256
392 1 0.506277 0.899239 0.601929
297 1 0.603298 0.905102 0.503914
298 1 0.69615 0.796657 0.495046
393 1 0.609522 0.795718 0.592222
394 1 0.605762 0.903912 0.693732
395 1 0.70201 0.78939 0.71094
396 1 0.699637 0.894116 0.609205
299 1 0.78575 0.90696 0.504589
300 1 0.884061 0.807122 0.508642
397 1 0.798581 0.798732 0.60729
398 1 0.8016 0.901537 0.703547
399 1 0.898449 0.795403 0.692965
400 1 0.888271 0.90964 0.60923
401 1 0.00753723 -0.00318527 0.79439
402 1 -0.000545662 0.0921224 0.891005
403 1 0.102532 -0.0141382 0.884822
404 1 0.109316 0.0978793 0.807275
405 1 0.20083 -0.00935692 0.79139
406 1 0.202844 0.100801 0.896076
407 1 0.2956 0.000443993 0.895697
408 1 0.292781 0.0953932 0.792606
409 1 0.413447 -0.00124892 0.794193
410 1 0.402092 0.090335 0.903352
411 1 0.509441 0.00145783 0.89068
412 1 0.498425 0.100807 0.79777
413 1 0.607345 0.00538506 0.799663
414 1 0.596953 0.106771 0.897249
415 1 0.700842 0.0035073 0.905877
416 1 0.697657 0.107808 0.795971
417 1 0.804418 -0.00437735 0.798788
418 1 0.796034 0.0997675 0.891099
419 1 0.897567 -0.0100038 0.893056
420 1 0.906368 0.0962052 0.795685
421 1 0.00673168 0.203182 0.797315
422 1 0.00501492 0.30499 0.902751
423 1 0.0991102 0.192978 0.890598
424 1 0.109522 0.302326 0.808585
425 1 0.199456 0.203934 0.804257
426 1 0.205876 0.305375 0.899945
427 1 0.312003 0.194301 0.897136
428 1 0.302532 0.301893 0.808472
429 1 0.392589 0.198804 0.786614
430 1 0.404623 0.311871 0.903859
431 1 0.489515 0.199983 0.891881
432 1 0.487604 0.294593 0.790337
433 1 0.602171 0.199585 0.804024
434 1 0.597313 0.300602 0.893153
435 1 0.704209 0.206871 0.898876
436 1 0.699942 0.305548 0.799246
437 1 0.803013 0.205826 0.797878
438 1 0.801443 0.30233 0.891565
439 1 0.902137 0.20095 0.899584
440 1 0.900318 0.296084 0.798072
441 1 -0.00493977 0.401567 0.803978
442 1 0.00244695 0.503003 0.899492
443 1 0.0957574 0.403487 0.903373
444 1 0.0969224 0.507112 0.797428
445 1 0.199703 0.395292 0.80791
446 1 0.193648 0.507278 0.894505
447 1 0.302954 0.402717 0.899903
448 1 0.30118 0.495229 0.793652
449 1 0.398665 0.408182 0.792159
450 1 0.404682 0.493566 0.892049
451 1 0.504897 0.413761 0.903579
452 1 0.50911 0.500848 0.800975
453 1 0.5982 0.397595 0.80316
454 1 0.620552 0.508661 0.891044
455 1 0.69622 0.4006 0.89939
456 1 0.70215 0.505035 0.792573
457 1 0.802175 0.403796 0.802365
458 1 0.792554 0.511743 0.902753
459 1 0.894403 0.409357 0.906584
460 1 0.906681 0.496637 0.797248
461 1 -0.00204036 0.598763 0.791111
462 1 0.00399815 0.697266 0.891716
463 1 0.100441 0.608033 0.898862
464 1 0.0939902 0.695215 0.797042
465 1 0.197829 0.608815 0.802937
466 1 0.193962 0.699789 0.893594
467 1 0.293227 0.602508 0.8984
468 1 0.31395 0.70909 0.801626
469 1 0.395196 0.597314 0.802623
470 1 0.401039 0.712132 0.89656
471 1 0.48862 0.594494 0.895792
472 1 0.500057 0.689787 0.794671
473 1 0.600158 0.606862 0.807056
474 1 0.606421 0.705603 0.896145
475 1 0.700095 0.608966 0.897887
476 1 0.703932 0.691573 0.798132
477 1 0.802533 0.595208 0.807025
478 1 0.803372 0.702955 0.893439
479 1 0.905841 0.597752 0.90002
480 1 0.899504 0.698755 0.787555
481 1 -0.0102357 0.791048 0.790665
482 1 0.00167478 0.889282 0.893065
483 1 0.0968649 0.796941 0.900658
484 1 0.108607 0.894609 0.792096
485 1 0.201704 0.789795 0.801026
486 1 0.201343 0.900478 0.902912
487 1 0.295041 0.798934 0.906513
488 1 0.303654 0.895141 0.803385
489 1 0.407306 0.802442 0.795703
490 1 0.396802 0.896517 0.900247
491 1 0.49716 0.797923 0.89772
492 1 0.500943 0.906874 0.792275
493 1 0.600981 0.797315 0.794977
494 1 0.611999 0.901353 0.912034
495 1 0.712177 0.800445 0.892141
496 1 0.696551 0.908454 0.79404
497 1 0.808902 0.808164 0.801511
498 1 0.798821 0.90054 0.897287
499 1 0.903201 0.806001 0.898695
500 1 0.904375 0.908575 0.7957
ITEM: TIMESTEP
2000
ITEM: NUMBER OF ATOMS
500
ITEM: BOX BOUNDS pp pp pp
0.0000000000000000e+00 1.7699999999999999e+01
0.0000000000000000e+00 1.7699999999999999e+01
0.0000000000000000e+00 1.7699999999999999e+01
ITEM: ATOMS id type xs ys zs
1 1 0.00682407 0.00242224 -0.000989427
2 1 -0.000614101 0.0979175 0.100316
3 1 0.090732 0.00386966 0.0906813
4 1 0.0943921 0.111836 0.0112749
101 1 -0.000542392 0.00181353 0.208893
104 1 0.0977798 0.0931038 0.198502
5 1 0.200491 -0.00474308 0.00251142
6 1 0.204621 0.0985739 0.11145
7 1 0.307562 -0.0153077 0.0949019
8 1 0.290251 0.0908423 0.00565646
105 1 0.19891 -2.44473e-05 0.195617
108 1 0.298922 0.0944132 0.201456
9 1 0.406752 0.000566689 0.00092648
10 1 0.396326 0.0982515 0.107159
11 1 0.494495 -0.00326761 0.0984912
12 1 0.496447 0.105427 0.00222716
109 1 0.402004 -0.00894571 0.199942
112 1 0.500038 0.103347 0.19567
13 1 0.600689 0.0176831 -0.00391317
14 1 0.585439 0.101334 0.100726
15 1 0.705286 0.00349984 0.109793
16 1 0.704734 0.105963 0.0144054
113 1 0.584079 -0.00721078 0.204258
116 1 0.694037 0.108135 0.197078
17 1 0.805365 0.00983542 0.000538572
18 1 0.809852 0.0998364 0.104237
19 1 0.911246 0.0119154 0.108684
20 1 0.911805 0.105867 -0.014907
117 1 0.804722 0.00102477 0.198249
120 1 0.896743 0.116325 0.19826
21 1 0.00231075 0.205598 -0.0121987
22 1 -0.00588629 0.294797 0.0927132
23 1 0.099661 0.206353 0.112038
24 1 0.113119 0.299589 0.00521264
121 1 -0.00755894 0.216406 0.207087
124 1 0.11337 0.309023 0.212774
25 1 0.184691 0.196446 -0.000219922
26 1 0.202664 0.299745 0.107555
27 1 0.295982 0.192297 0.106351
28 1 0.291054 0.297733 -0.0150996
125 1 0.198099 0.198043 0.203798
128 1 0.294173 0.303724 0.207395
29 1 0.394931 0.199054 0.0123195
30 1 0.397765 0.296263 0.1082
31 1 0.508765 0.209309 0.104346
32 1 0.487685 0.297172 -0.0014481
129 1 0.393504 0.197776 0.203801
132 1 0.499667 0.310634 0.206424
33 1 0.598836 0.192154 -0.000697192
34 1 0.595023 0.302165 0.0829866
35 1 0.699205 0.204279 0.108914
36 1 0.711304 0.297047 0.0105734
133 1 0.612206 0.212833 0.207357
136 1 0.699718 0.30993 0.194556
37 1 0.809268 0.196638 -0.00413149
38 1 0.816842 0.291996 0.0955997
39 1 0.909866 0.197039 0.0845986
40 1 0.897549 0.299692 -0.00944735
137 1 0.796564 0.198811 0.210503
140 1 0.897167 0.305363 0.216215
41 1 0.0157118 0.393341 -0.00669006
42 1 -0.00955033 0.493277 0.0986681
43 1 0.1052 0.404642 0.103963
44 1 0.091695 0.495863 0.0118994
141 1 0.00375874 0.386899 0.210397
144 1 0.0853679 0.500023 0.202343
45 1 0.198634 0.399268 -0.00471478
46 1 0.197831 0.490897 0.0951172
47 1 0.294733 0.39465 0.107271
48 1 0.285199 0.500879 -0.00150535
145 1 0.203254 0.402272 0.213608
148 1 0.296213 0.504507 0.203725
49 1 0.390919 0.400034 -0.00489323
50 1 0.397111 0.504173 0.108976
51 1 0.488821 0.396646 0.0971776
52 1 0.490293 0.491396 -0.00198595
149 1 0.392934 0.401584 0.202826
152 1 0.504534 0.508195 0.198721
53 1 0.594392 0.400533 -0.00165059
54 1 0.602227 0.51767 0.103275
55 1 0.711973 0.40113 0.0948439
56 1 0.705256 0.511072 0.00261167
153 1 0.616081 0.407876 0.195185
156 1 0.702234 0.509219 0.205759
57 1 0.79771 0.401157 -0.00237703
58 1 0.804656 0.501297 0.0972623
59 1 0.901541 0.394058 0.105054
60 1 0.911918 0.490985 -0.00652767
157 1 0.805605 0.408255 0.205526
160 1 0.904168 0.49718 0.201251
61 1 -0.00615743 0.596493 -0.00575811
62 1 0.00714634 0.702494 0.097313
63 1 0.0941062 0.596183 0.0852916
64 1 0.104861 0.704643 -0.00486627
161 1 0.00410881 0.596989 0.196754
164 1 0.0970628 0.698545 0.205026
65 1 0.197537 0.604806 0.00778129
66 1 0.204754 0.710217 0.100739
67 1 0.292706 0.596222 0.101771
68 1 0.29335 0.693445 -0.00611643
165 1 0.187741 0.59348 0.195759
168 1 0.293874 0.686976 0.196323
69 1 0.407686 0.598606 0.00062072
70 1 0.396456 0.692823 0.0928562
71 1 0.50365 0.603218 0.0961882
72 1 0.507735 0.714374 -0.00420011
169 1 0.408349 0.59499 0.200458
172 1 0.494576 0.697095 0.199955
73 1 0.59064 0.606722 -0.0035789
74 1 0.600893 0.704577 0.0958418
75 1 0.698365 0.602208 0.0933602
76 1 0.697692 0.694475 0.000631596
173 1 0.599941 0.609294 0.197795
176 1 0.700837 0.683437 0.203658
77 1 0.804609 0.599912 -0.01043
78 1 0.796639 0.70336 0.102016
79 1 0.90559 0.602923 0.099642
80 1 0.897188 0.702241 0.00437849