LAMMPS data file via write_data, version 7 Feb 2024, timestep = 35000, units = metal

500 atoms
1 atom types

0 17.7 xlo xhi
0 17.7 ylo yhi
0 17.7 zlo zhi

Masses

1 58.71

Atoms # atomic

2 1 0.06157369687160421 1.7765782450872847 1.9571430243929295 0 0 0
3 1 1.8471002149209186 17.658325144885232 1.6959075595963173 0 -1 0
299 1 14.098149005667242 16.053883292915316 8.701077713911257 0 0 0
104 1 1.6314317459057426 1.8267237840549144 3.599432070133412 0 0 0
6 1 3.651265474528955 1.719162227360142 1.612372645888796 0 0 0
119 1 16.04071184126591 17.646019595416476 5.446648787000325 0 -1 0
8 1 5.313318317157009 1.8057768365821938 0.11838665911603662 0 0 0
108 1 5.218820381390148 1.953233746854571 3.5878818927486917 0 0 0
10 1 6.781816898428789 1.7515998153204317 1.7619746588516931 0 0 0
12 1 8.808404154292564 1.7739591636773464 0.06309626491929937 0 0 0
112 1 8.597724260786292 1.9942426671152391 3.521727165307555 0 0 0
14 1 10.492687752896519 1.6800656804595198 1.8806000277168216 0 0 0
15 1 12.389688463850158 0.18477579780751335 1.9124692378653598 0 0 0
16 1 12.19695872693357 1.7888790428673227 0.043111639537510134 0 0 0
116 1 12.287881076467517 1.8479192027234799 3.479573879026907 0 0 0
18 1 14.288990559296263 1.8962829512048787 1.887401092342693 0 0 0
35 1 12.156438937597246 3.5982766842738894 1.668294278633877 0 0 0
137 1 13.95779483120056 3.570718926915316 3.560710419407342 0 0 0
120 1 15.897670711940586 1.965141628802197 3.3632185515492345 0 0 0
121 1 17.64153970665558 3.6708103125195057 3.4824230228878394 -1 0 0
39 1 16.08298363187278 3.635056797604193 1.5347932962648296 0 0 0
22 1 0.12005470395624486 5.357507801273892 1.6370059514853927 0 0 0
23 1 1.7906113701836224 3.662720164731474 1.9655079898612513 0 0 0
124 1 1.7359770867602646 5.282735867912392 3.4329004425512593 0 0 0
26 1 3.553183111188589 5.421643374565204 1.6013941648350065 0 0 0
125 1 3.6295745636757055 3.559955221189176 3.543368128525463 0 0 0
43 1 1.800343255119357 7.0574066437654315 1.6549321284552352 0 0 0
145 1 3.416729908461667 6.975489445781136 3.493874668785261 0 0 0
250 1 16.03194422055537 15.806615964649357 6.9469912025174665 0 0 0
27 1 5.2241379078622625 3.6722991981590734 1.7020118942853302 0 0 0
128 1 5.163377546858198 5.440238066399405 3.6242550322726212 0 0 0
129 1 6.848842444694221 3.6838630961276038 3.5549188115138763 0 0 0
115 1 12.248925839138401 17.691542902971676 5.3595965399979635 0 -1 0
30 1 7.046098566993704 5.3438473517066525 1.7857989827221679 0 0 0
31 1 8.876397060642125 3.511457734607423 1.6464464629484432 0 0 0
195 1 12.298345514624648 14.240887707191213 5.460030788754226 0 0 0
132 1 8.912614240951484 5.202121148136052 3.3718935427294925 0 0 0
133 1 10.593701834426309 3.5487818471108263 3.650624942716538 0 0 0
51 1 8.988610403466746 7.006630610018205 1.739584128567423 0 0 0
149 1 6.859798773956162 7.256064004127872 3.5416939282243955 0 0 0
34 1 10.491285837307661 5.347703760974892 1.558757517605096 0 0 0
36 1 12.273615174387963 5.5370464960732075 0.04966576085821797 0 0 0
136 1 12.05515447888862 5.284496267614061 3.4352008862203474 0 0 0
157 1 13.953450794369932 7.062854532861655 3.592862039209078 0 0 0
38 1 14.017070774904441 5.35613935011088 1.887255908893627 0 0 0
140 1 15.838533037538456 5.26212500509798 3.32680776017469 0 0 0
141 1 0.2941016796784872 6.9676673625513255 3.7023842444183632 0 0 0
42 1 0.12056026506208294 8.682556559339211 1.5257938152304849 0 0 0
248 1 12.296314682037856 15.95840026785727 7.025234822761965 0 0 0
144 1 1.773907684224551 8.952768536418617 3.4550333147434626 0 0 0
46 1 3.5388113334462084 8.720661785682793 1.739827039343166 0 0 0
198 1 14.127474240340378 15.90682126480251 5.373804632161464 0 0 0
47 1 5.3132126625962846 7.011629258718876 1.705296317957837 0 0 0
207 1 10.625137750727824 0.008388898824041036 7.143962526038031 0 0 0
148 1 5.025934904586445 8.709341339847509 3.5932347709068067 0 0 0
67 1 5.417490375974236 10.546785801319022 1.5507089757514627 0 0 0
111 1 8.430172838965479 17.655213893896153 5.435807005789292 0 -1 0
169 1 6.909736195372684 10.623480072305698 3.450216019566232 0 0 0
50 1 7.157976773573507 8.766681555005283 1.6033305982583341 0 0 0
152 1 8.769655870251514 8.939605979864314 3.241030202106802 0 0 0
153 1 10.708681848707315 7.138590845735495 3.409598291310874 0 0 0
71 1 8.791562617263914 10.789347979606358 1.7687982524248016 0 0 0
246 1 8.693171106435072 15.86620438557629 7.120838889952301 0 0 0
54 1 10.595542551107217 9.091934028832757 1.6197901156588947 0 0 0
55 1 12.429890209364476 7.214788893675377 1.5699795294181953 0 0 0
56 1 12.375427146138248 8.942596632570151 0.03067343736295492 0 0 0
156 1 12.400796102308444 8.98776955169114 3.371238053579101 0 0 0
194 1 10.414386753987898 15.843463866701596 5.574137499480648 0 0 0
205 1 6.684806516891385 0.1504000269228989 7.155123996225944 0 0 0
58 1 14.279481872776717 8.771811649187413 1.8023483047139133 0 0 0
59 1 16.008921365175937 7.189930538385456 1.556315611002356 0 0 0
160 1 16.306218347579442 8.648800291534132 3.3484409734094056 0 0 0
161 1 0.02885309920579715 10.465386211639787 3.4605948284125274 0 0 0
177 1 14.219952384334169 10.81637378635258 3.562933374606053 0 0 0
62 1 17.644582149297285 12.346397538684199 1.9635669880079567 -1 0 0
63 1 1.7120782769084846 10.45453816945941 1.7615602028365545 0 0 0
164 1 1.7144295591492473 12.106054420736966 3.7778097092517444 0 0 0
66 1 3.5275733943845378 12.427698989919593 1.7600091524877772 0 0 0
68 1 5.491192618222721 12.593580247977968 0.010460986041901054 0 0 0
165 1 3.6254706303825723 10.580808500421472 3.391166674604787 0 0 0
168 1 5.240520692612245 12.51447126455272 3.47144434579541 0 0 0
70 1 7.0913775595577855 12.457687041850374 1.5688468385698078 0 0 0
189 1 7.047881294985778 14.019381529692104 3.3899126281078313 0 0 0
172 1 8.829335537660148 12.3903343498522 3.454590469347667 0 0 0
74 1 10.545011256068653 12.36931783742225 1.6480768650382303 0 0 0
91 1 8.8276575389012 14.254488354624659 1.6089520401311674 0 0 0
75 1 12.361236769819653 10.807438778270175 1.7264264793681061 0 0 0
173 1 10.600684057490154 10.478913565536638 3.5690217394032264 0 0 0
176 1 12.28100828893577 12.420910078692115 3.6616991658791442 0 0 0
78 1 14.211803139174354 12.61036254356107 1.8978621557626278 0 0 0
79 1 15.923249851921787 10.824292190445718 1.8056773884452928 0 0 0
180 1 15.975206773100492 12.354637315792056 3.6879323514892426 0 0 0
181 1 0.19245093235579702 14.152222154241363 3.6205502954217352 0 0 0
197 1 14.072545062692082 14.377451385791177 3.613704497211131 0 0 0
1 1 0.034508624315778856 0.00799785837971001 0.001289444085274896 0 0 0
82 1 0.08449448167042559 15.854275854804026 1.6614233905066909 0 0 0
83 1 1.7785265613019912 14.168891764734521 1.830293921748175 0 0 0
184 1 1.821950133172517 15.96779021371141 3.6898596678247353 0 0 0
7 1 5.301092595534748 17.692922730867924 1.693527239091821 0 -1 0
105 1 3.6799297813509146 0.08250260187233494 3.455824770919612 0 0 0
109 1 6.889811183635841 0.2482852166553542 3.630767521756061 0 0 0
86 1 3.5215928777322496 15.98388369863171 1.8199193197429213 0 0 0
87 1 5.306106809145413 14.266473826203034 1.848778542364534 0 0 0
185 1 3.4259908159781705 13.984472048008302 3.707378873931374 0 0 0
188 1 5.0108727296371045 15.797342141144725 3.6663686252816157 0 0 0
90 1 7.025641743250512 15.985711463297246 2.0691183418169397 0 0 0
11 1 8.623124490444848 0.11478724882348601 1.8103206118259982 0 0 0
113 1 10.281784314824897 0.09525027592310309 3.748249998707583 0 0 0
92 1 8.786868773418341 16.01079365127775 0.11925277101863957 0 0 0
192 1 8.939538957605954 15.859921434488067 3.507801365524791 0 0 0
94 1 10.567814137134441 16.07538170287983 1.8200018970042449 0 0 0
193 1 10.702450171861642 14.147468912161576 3.456357132692097 0 0 0
17 1 13.975172995160024 17.65114252776698 0.1755079070708973 0 -1 0
117 1 14.089644681508812 0.043230827517941606 3.67383682248983 0 0 0
95 1 12.467190284277121 14.251111156981638 1.7462974739794097 0 0 0
196 1 12.143278816429948 15.901129482435032 3.8506805846613017 0 0 0
97 1 14.102805604296233 14.351698715182112 0.10827517082453333 0 0 0
98 1 13.971450455419482 15.953690237229067 1.9094786929580023 0 0 0
101 1 17.595580482199185 17.669830357184306 3.3734749642588144 -1 -1 0
19 1 15.76672769159667 0.07908334023939645 1.7030382771185086 0 0 0
81 1 0.1557724220310206 13.960500491816557 0.27141523776347065 0 0 0
99 1 15.9499553755847 14.22952276623504 2.023812958388529 0 0 0
200 1 15.950061885033413 15.952648323150683 3.6992750392842706 0 0 0
102 1 0.024618125945299392 1.950456145549524 5.2739483334456665 0 0 0
103 1 1.614237622287349 17.59982812595737 5.41237252412092 0 -1 0
202 1 1.718992309516568 1.862901056867214 7.008036740567005 0 0 0
106 1 3.4235338686209427 1.8169336718243345 5.455427268547499 0 0 0
123 1 1.7941111256083533 3.64771877582738 5.0953154113838455 0 0 0
107 1 5.2216228752203415 0.1279843848500086 5.290001202498084 0 0 0
203 1 3.482499321425372 0.1761422601402349 7.0999135326716525 0 0 0
204 1 5.205185969289578 1.8406663075971947 7.204182614165724 0 0 0
213 1 3.5173015597534167 3.518365870767635 7.180581103555232 0 0 0
253 1 3.395508089250218 1.8618672087938652 8.821365428889704 0 0 0
110 1 6.888170665410471 1.883976931430981 5.4137242562064865 0 0 0
206 1 8.692046244517366 1.787661826181869 7.045776495304829 0 0 0
131 1 8.83843521978406 3.6578702857677663 5.25393286930978 0 0 0
217 1 10.546761885864399 3.558183206741612 7.178910033979648 0 0 0
114 1 10.511031467043674 1.822282523107627 5.403800053405645 0 0 0
208 1 12.462332183730242 1.7911879877672228 6.973885052700321 0 0 0
135 1 12.482046789977785 3.5144611618241752 5.342092285936491 0 0 0
244 1 4.876394255152608 15.818983557958008 7.219080046642058 0 0 0
118 1 14.28703280929045 1.738963362697665 5.27496239768214 0 0 0
209 1 14.062241714257405 0.23097749096928363 7.098640896071966 0 0 0
210 1 15.968745882349372 1.5650700593754936 7.1138011241307435 0 0 0
219 1 14.223276794679583 3.374955673965649 6.984924188646826 0 0 0
190 1 6.9406142702619675 15.883612228429858 5.131841749947035 0 0 0
212 1 1.9613131317904515 5.203538854017435 7.10435009691477 0 0 0
126 1 3.5904484774908463 5.234363675980851 5.599665068470358 0 0 0
223 1 3.681296775658298 7.293404043159236 7.191328371742587 0 0 0
201 1 0.10277469487421309 0.005937220817514799 7.259763248437518 0 0 0
272 1 1.94949699175812 7.1018781670363005 8.73333677321514 0 0 0
127 1 5.425521429303359 3.570950887844918 5.2916492721968655 0 0 0
214 1 5.32366358093998 5.327775389069177 7.066552789225978 0 0 0
130 1 6.854589690685753 5.40010368173085 5.423909285676057 0 0 0
182 1 0.028449376725475154 15.79281642828813 5.418302119357183 0 0 0
183 1 1.9486338455159633 14.148687414467446 5.458290791654888 0 0 0
215 1 7.026154167293229 3.5356098738706607 7.117270728204219 0 0 0
216 1 8.776798119646097 5.358896421710146 7.220784346815569 0 0 0
134 1 10.62726185374019 5.337266720231222 5.3413689507475155 0 0 0
151 1 8.70310093692573 7.081391793857251 5.210820258672073 0 0 0
227 1 10.793453257489496 7.062429347292941 7.1339324499636705 0 0 0
266 1 8.847563471339702 3.4836061601886454 8.802371429711675 0 0 0
242 1 2.017021863335543 15.774740630834305 7.238194238868371 0 0 0
186 1 3.459806400940019 16.098135622582895 5.396859220933994 0 0 0
218 1 12.376660045455392 5.242263424271649 6.909846885224621 0 0 0
138 1 14.14770744275341 5.300916704885832 5.271244306528744 0 0 0
268 1 12.463393227080843 3.4639309762849333 8.747373850917917 0 0 0
300 1 16.028911229825795 14.02469652311119 8.627272193051223 0 0 0
122 1 17.659114115862305 5.414688128749451 5.343381950232137 -1 0 0
211 1 0.07132369440344988 3.62954666858119 6.925610857869299 0 0 0
139 1 15.985093278853325 3.610723216598782 5.444245816425575 0 0 0
220 1 15.916615501618207 5.2552977587196334 7.18196500354971 0 0 0
221 1 0.045118945912758335 7.034130720705867 7.007615065185614 0 0 0
159 1 15.883901215666222 7.031590214158635 5.1196826066649885 0 0 0
270 1 16.027371360484292 3.3794078609659346 8.766616134016795 0 0 0
142 1 0.12294888796671548 8.69567717540382 5.355176168759128 0 0 0
143 1 2.017525651109086 7.061234939935797 5.23727096320039 0 0 0
222 1 1.8986341346169062 8.786320458452543 7.233186676262077 0 0 0
146 1 3.576280601951427 8.939989643322345 5.475879796606732 0 0 0
163 1 1.7292964798157568 10.516147554571283 5.34502386295264 0 0 0
147 1 5.231348513901419 7.11375038776145 5.463895369761487 0 0 0
224 1 5.25461473751997 9.10677605968503 7.151330515179733 0 0 0
233 1 3.4772666928247253 10.69875130145282 7.116949802814282 0 0 0
235 1 7.014281878554054 10.69635047091348 7.029816533111145 0 0 0
239 1 14.163380086644583 10.692539592621904 6.793972494611194 0 0 0
150 1 6.967978837945543 8.795034305433717 5.342032612962321 0 0 0
225 1 7.12566896848831 7.120381600545309 7.2814167908899945 0 0 0
226 1 8.856853689271716 8.713481348622018 7.3492941412655615 0 0 0
154 1 10.541810172591232 8.880581240024085 5.391272000541205 0 0 0
171 1 8.633880587116897 10.527755936655911 5.361892058251597 0 0 0
155 1 12.158077902230616 7.102277853208964 5.184801209258836 0 0 0
228 1 12.479820694919214 8.95786121097994 7.04394358408365 0 0 0
158 1 13.951079318774156 8.81623029409946 5.220549040883222 0 0 0
278 1 12.44192766705012 6.862568640774222 8.831753888901185 0 0 0
240 1 15.873085475334355 12.262233780886064 6.9408460954327325 0 0 0
288 1 12.45386637375122 10.507572468941923 8.846647326965444 0 0 0
179 1 15.954730225617702 10.344425869805423 5.10803250817209 0 0 0
229 1 14.12477910166334 7.062645729984169 7.185087917061264 0 0 0
230 1 16.027714482848996 8.752020866232922 7.147850872132374 0 0 0
231 1 17.51878462779724 10.442204228616054 6.916261194037236 -1 0 0
243 1 3.4781690309494904 13.904214219804459 7.227090475290239 0 0 0
241 1 0.07380383901298494 14.143049647474895 7.103698022957964 0 0 0
162 1 17.678168713190026 12.345195317523851 5.368570087214088 -1 0 0
232 1 1.599045521175699 12.192213807029727 7.338752127177401 0 0 0
166 1 3.555818011814584 12.238923997893849 5.336645172387793 0 0 0
199 1 15.944428356463945 14.070398594568164 5.256824621571443 0 0 0
245 1 6.885325736969965 14.195712707231788 7.218197901566806 0 0 0
187 1 5.222133270410129 14.136532250406086 5.2814270175360924 0 0 0
167 1 5.331965699398268 10.568010791417999 5.222258807992236 0 0 0
234 1 5.250784587253 12.422275698590708 7.121941836214805 0 0 0
170 1 7.124045015524931 12.41045662152321 5.2305293592711415 0 0 0
249 1 14.236588310538705 13.97827644672964 7.2493651701540065 0 0 0
294 1 5.201826660196513 14.056364086780693 8.824705004608253 0 0 0
247 1 10.710341461801997 14.081271409740294 7.031433044171011 0 0 0
191 1 8.83060225991757 14.13952460487 5.330150298974231 0 0 0
237 1 10.5749455968942 10.656206980663004 7.066759015188576 0 0 0
236 1 8.805936451848691 12.529813665497826 7.091209893486169 0 0 0
174 1 10.461360484565207 12.080784148743835 5.260469990076498 0 0 0
296 1 8.990640106328009 14.254611725030026 8.756506139576786 0 0 0
178 1 14.111167157984237 12.489964473156938 5.085653091318999 0 0 0
238 1 12.393827447792141 12.312217469464045 6.897255061413346 0 0 0
175 1 12.143656241465775 10.478236055084745 5.310056375829073 0 0 0
251 1 0.0686114431744046 1.6768224393101925 8.821285359483818 0 0 0
100 1 15.864607399781093 15.821640204585767 0.2241639257461756 0 0 0
264 1 5.297413304127402 3.434849250477703 8.80799168722567 0 0 0
256 1 8.819668451789648 0.06127400705503233 8.745143652077209 0 0 0
260 1 16.10691571531697 17.520298816387335 8.760740075022229 0 -1 0
96 1 12.353155056385681 15.93978809311263 0.09305614738102008 0 0 0
282 1 1.6738397206399673 10.470799477123554 8.795339720592413 0 0 0
277 1 10.992848612383861 8.91770698385571 8.847506456624663 0 0 0
280 1 15.772254290699989 7.0679730056015675 8.767720166147985 0 0 0
290 1 15.693711879601645 10.600641759749417 8.71090965380116 0 0 0
287 1 10.685885541424478 12.45243982888397 8.781441177990146 0 0 0
298 1 12.332901315203836 14.153771640912279 8.641297816777943 0 0 0
289 1 14.197230685776466 12.279358771703082 8.770697046087689 0 0 0
291 1 0.05754463764250655 15.780643827209847 8.844446462209925 0 0 0
88 1 5.3502449162188945 16.020910734946554 0.15491610598068206 0 0 0
297 1 10.590056357580808 15.801162331677597 8.718591777070182 0 0 0
5 1 3.4112981077830002 17.63091844268124 0.04117319327689373 0 -1 0
85 1 3.5702567410297767 14.17569426805954 0.191559556452372 0 0 0
84 1 1.850290439663095 15.926265980478036 0.008072683076239429 0 0 0
9 1 6.91233884072457 0.11352814053091627 0.12386587155764417 0 0 0
13 1 10.57061776615718 17.656745575678404 0.1814865910016472 0 -1 0
29 1 7.044882456134159 3.4564103541355404 0.1524806285276341 0 0 0
33 1 10.6116374494237 3.583775684040147 0.012356630933528123 0 0 0
37 1 14.066919784332145 3.51942639544918 0.012568903952384858 0 0 0
80 1 15.994844572168962 12.368772265843505 0.08140428970022384 0 0 0
77 1 14.257534560911608 10.652811106074514 0.17116805951981462 0 0 0
40 1 16.03147005582857 5.336498533837471 0.05955693018916719 0 0 0
61 1 0.0058845359712046946 10.633528819220768 0.01642369571208846 0 0 0
64 1 1.904309047667312 12.428395675228561 0.09086818877606007 0 0 0
498 1 14.252445345586851 16.15205831874275 15.947793959389172 0 0 0
303 1 1.7932799602245433 17.681837140305305 12.499787830485383 0 -1 0
304 1 1.7881591922818953 1.893196564722724 10.494218102111287 0 0 0
254 1 5.079989980824974 0.14444939340733437 9.068096378136628 0 0 0
305 1 3.4412194392212005 17.599192518077384 10.804094526263189 0 -1 0
306 1 3.448278071768185 1.70351602342466 12.453592464093482 0 0 0
308 1 5.106680334772412 1.778062373028288 10.639381365037185 0 0 0
499 1 15.907778286277273 14.128299564577285 15.975092022068976 0 0 0
255 1 7.066547339795293 1.6318046531071608 9.057387794084308 0 0 0
500 1 15.941171338569816 15.911000343207636 14.127628449637491 0 0 0
309 1 7.148016421629651 17.596714061590816 10.689540636196696 0 -1 0
310 1 7.034270165060503 1.5791395347605544 12.366192366124338 0 0 0
312 1 8.84704981844171 1.8460920560144483 10.3215247234882 0 0 0
314 1 10.532616607024705 1.6092599474205336 12.350760740528779 0 0 0
316 1 12.475181376539952 1.6917355733608994 10.492394818056503 0 0 0
318 1 14.232887976137762 1.6609074677348796 12.342791031022077 0 0 0
333 1 10.665609213744098 3.5064322884561903 10.64637506451293 0 0 0
302 1 0.1030588073714398 1.7722466316187724 12.293031941511154 0 0 0
415 1 12.417388927053347 0.09921734997217868 15.95246094203405 0 0 0
319 1 15.995692871930238 17.616386163503208 12.354146014412784 0 -1 0
320 1 16.02038983291133 1.7348307123010398 10.425480260202185 0 0 0
262 1 1.586103001115011 3.558759202404223 8.956915523686618 0 0 0
322 1 0.018704998214313817 5.264344859136988 12.268320448895867 0 0 0
323 1 1.765951062646746 3.6634196945624464 12.467320316264752 0 0 0
324 1 1.904411098368244 5.514501445163854 10.50965233938556 0 0 0
263 1 3.7054252667576426 5.351714710290739 8.914754139613272 0 0 0
325 1 3.3980491557050785 3.5274574146372326 10.651620858469231 0 0 0
343 1 1.8713560497749926 7.039898799508458 12.61337478274623 0 0 0
345 1 3.5591474136963828 7.029275442387346 10.70864886106592 0 0 0
326 1 3.605723914162275 5.2106558874367614 12.399336513665233 0 0 0
327 1 5.344272220276136 3.4493630801101594 12.468619886299514 0 0 0
328 1 5.2905463862622115 5.044386945235829 10.878682480915563 0 0 0
347 1 5.48799330068162 6.988234826814164 12.333124739095588 0 0 0
329 1 7.129075644956971 3.3835728855574136 10.778725299939383 0 0 0
330 1 7.069197703217607 5.320603809270887 12.58489080113072 0 0 0
331 1 8.822463698911054 3.660933099810475 12.170417553725994 0 0 0
332 1 8.885039536827954 5.1276743497774735 10.567391543120364 0 0 0
334 1 10.582236911352371 5.242250650298837 12.28798701095186 0 0 0
349 1 7.045073891100424 7.03163890234165 10.617961244415579 0 0 0
335 1 12.376209108191697 3.627083634981299 12.422024619959723 0 0 0
336 1 12.480915809715398 5.201077729720634 10.68908736352761 0 0 0
337 1 14.264219562251837 3.4792021133852056 10.804952223639743 0 0 0
338 1 13.996616403266952 5.323180340683377 12.522048419479672 0 0 0
355 1 12.288621845800385 7.021571438645835 12.387430523205824 0 0 0
357 1 14.346779045303064 7.0295959519533735 10.605290441003174 0 0 0
321 1 17.64218350847063 3.5316880683520657 10.583621751113723 -1 0 0
339 1 15.95321199442822 3.4630595115214495 12.408298515985143 0 0 0
340 1 15.897026105645498 5.256274085201804 10.627584971052542 0 0 0
341 1 17.480734537427615 7.092952152593803 10.737922226472437 -1 0 0
359 1 15.865039788720004 7.049164855464737 12.527694918243688 0 0 0
271 1 0.020811557951633107 8.789280176389086 8.894587922196058 0 0 0
342 1 17.65432832363662 8.779485123445362 12.411028768495413 -1 0 0
344 1 1.72054307103247 8.683239485211566 10.695778636418158 0 0 0
346 1 3.7719373074437375 8.749341524563292 12.141076585316926 0 0 0
493 1 10.687909481671134 14.210133124132948 14.134883033250697 0 0 0
361 1 0.002165418950271567 10.576947522561074 10.515541547679998 0 0 0
273 1 3.6257261686770783 8.86478302046713 9.166663700895933 0 0 0
348 1 5.458819639034358 8.990135558265703 10.697913671394227 0 0 0
284 1 5.377297481583471 10.600949215609912 8.975152828453204 0 0 0
365 1 3.4804566253764415 10.674073498126013 10.6386714417669 0 0 0
367 1 5.2472063438370125 10.56225700023753 12.402060765069175 0 0 0
369 1 7.198015856639206 10.653586854414332 10.60493147773356 0 0 0
350 1 7.329493087036337 8.69448327598795 12.197560062814661 0 0 0
351 1 8.982160327109105 6.99960380930217 12.25802385881387 0 0 0
352 1 9.153188752070223 8.918966975622295 10.29354378954476 0 0 0
353 1 10.689928503403722 7.069325904657779 10.597245999918064 0 0 0
354 1 10.643108911798315 8.76728835107415 12.302813696081328 0 0 0
371 1 9.058817972014227 10.533812388722486 12.445247637725092 0 0 0
495 1 12.375494572404792 14.252506942554508 15.805104458845694 0 0 0
356 1 12.513654413651366 8.784811681444156 10.659713966612815 0 0 0
358 1 14.089837475721776 8.754087858174659 12.380792799179549 0 0 0
373 1 10.682678708106657 10.762999405043676 10.545776155005104 0 0 0
496 1 12.519758301758777 16.038891380962337 14.06599246385207 0 0 0
360 1 15.979349602829744 8.820263536103573 10.430110357054543 0 0 0
497 1 14.134670105106153 14.16045031965899 14.037133822826371 0 0 0
377 1 14.359752436744728 10.634479424196657 10.777798484303243 0 0 0
281 1 17.63005943399943 12.279936321979172 8.9994258902613 -1 0 0
363 1 1.6163903282195442 10.662662631929923 12.60014310649605 0 0 0
364 1 1.6797720060093695 12.27034966200602 10.668799573155818 0 0 0
366 1 3.5648453387828183 12.407891840128215 12.605746094385838 0 0 0
383 1 1.7309521366693192 13.95839407002488 12.56884355637881 0 0 0
283 1 3.420157607040786 12.26987721232843 8.92341248106631 0 0 0
368 1 5.347299310202408 12.397580208885014 10.738126599600664 0 0 0
385 1 3.493408542894205 14.25928375243243 10.759530525094986 0 0 0
286 1 8.910730569017383 10.764679717229653 8.869288259070622 0 0 0
370 1 7.257111659903905 12.405649392892343 12.557129620067634 0 0 0
372 1 8.954291501253755 12.375418174781686 10.771774858428204 0 0 0
489 1 7.091121122373574 14.274453560081136 14.318890099874523 0 0 0
391 1 8.820024207531901 14.145901088627491 12.447742689300894 0 0 0
374 1 10.735525311585302 12.488351595302774 12.359901763878131 0 0 0
375 1 12.374541079790891 10.620559163935665 12.387301989132672 0 0 0
376 1 12.569138375483535 12.406146973194748 10.363261375916712 0 0 0
492 1 9.035149696735505 16.116996109794634 14.111206134451963 0 0 0
393 1 10.575124024706655 13.973438357361124 10.644630158451383 0 0 0
395 1 12.35559525151153 14.140401632384485 12.163808296938154 0 0 0
362 1 0.02902155127110362 12.198306456327925 12.41557108653073 0 0 0
494 1 10.665658563092178 15.94768042281305 15.93447880870821 0 0 0
378 1 14.23422302376983 12.392678220451378 12.321023896325578 0 0 0
379 1 16.025451177721493 10.323436216891487 12.501187595991212 0 0 0
380 1 15.906659491691848 12.453044175130671 10.563585410479966 0 0 0
399 1 15.784749893386339 14.311170890215209 12.26757228402132 0 0 0
252 1 1.7963853478189862 17.577378141945342 8.944598755382868 0 -1 0
488 1 5.299073515115762 15.96826336633788 14.22712578310515 0 0 0
381 1 0.1199310673926605 14.036382048942984 10.798132682334971 0 0 0
382 1 17.5922101313657 15.796052214418943 12.375767707265073 -1 0 0
384 1 1.670245136923627 15.854280700159398 10.654420019207674 0 0 0
307 1 5.271461541888354 17.62785662024836 12.303907820064186 0 -1 0
386 1 3.496104728192854 15.772406160038072 12.435709860424856 0 0 0
387 1 5.396018975783754 14.189526668588773 12.357863853754605 0 0 0
388 1 5.177237081771086 15.879753166633233 10.62830174380061 0 0 0
389 1 7.079331185855166 14.016251015141052 10.56447739767201 0 0 0
311 1 8.835532619719503 17.5783613407396 12.370103436267362 0 -1 0
390 1 7.193539477976899 15.81624255639843 12.266372060521192 0 0 0
392 1 8.986183226716815 15.971191276379813 10.617575136062841 0 0 0
490 1 6.910445726604762 16.039487191084845 15.845262167309007 0 0 0
313 1 10.684349996767498 17.6487723856467 10.594920710221459 0 -1 0
315 1 12.378838598250601 0.013138236433334782 12.392905267928223 0 0 0
317 1 14.180137627931053 0.006082350838497064 10.426680164160443 0 0 0
394 1 10.745876222204895 15.928820119820433 12.3656913710299 0 0 0
396 1 12.457693839938933 16.072649242846193 10.345886778698057 0 0 0
301 1 0.12156581828164192 17.574946061375734 10.729541262014694 0 -1 0
397 1 14.313742626753841 14.220477807237508 10.187328790723585 0 0 0
398 1 14.060350588249745 15.865838938488752 12.127772805097395 0 0 0
400 1 15.99922774563508 15.904235218831495 10.32211077123324 0 0 0
402 1 0.15483972225884374 1.6496422000495004 16.04102481377074 0 0 0
403 1 1.7290299608953885 17.642759976768918 15.883445866075748 0 -1 0
404 1 1.8454286928263244 1.7857041876990127 14.028454419598923 0 0 0
406 1 3.501710489275611 1.6650154573279423 15.893852727141764 0 0 0
423 1 1.9093933336026483 3.600525508726435 15.891829785444417 0 0 0
425 1 3.650821200077103 3.572777956340317 14.349974832956752 0 0 0
405 1 3.6097284200477264 17.51620368031632 13.89520570975836 0 -1 0
407 1 5.24325777729248 17.664072875908108 15.896868724385822 0 -1 0
408 1 5.283617506987528 1.5476096699668014 14.069326424665734 0 0 0
401 1 17.58709982506899 0.115471116331193 14.213014374998172 -1 0 0
482 1 17.50821848372792 15.804324321546511 16.08016511390687 -1 0 0
409 1 7.086943622590435 17.66943285946388 14.163017164657143 0 -1 0
410 1 7.013989542496539 1.7618353561594038 16.034782234511066 0 0 0
411 1 8.918362878596621 0.015637566479881463 15.986970810031263 0 0 0
412 1 8.910351433652943 1.3896637672704424 14.124394688959903 0 0 0
429 1 7.0653283844705195 3.3276753223923468 14.26646753302727 0 0 0
431 1 9.03027991205137 3.2603513535788156 16.06684897374404 0 0 0
433 1 10.523592318211318 3.4207228673066 14.129585305951192 0 0 0
413 1 10.792054808378321 17.605659081559036 14.27226922882916 0 -1 0
414 1 10.753714001537174 1.6892664851343422 15.861042512444039 0 0 0
416 1 12.415988848677818 1.7130436348844087 13.862159107075744 0 0 0
483 1 1.6249904045561243 14.247520574881362 15.96571778094368 0 0 0
417 1 14.184730723213828 0.09326252731544542 14.226237579560784 0 0 0
418 1 14.247101429230806 1.7618069673363954 16.018955779044646 0 0 0
419 1 15.860992707476367 17.64447025150196 16.026600056264396 0 -1 0
420 1 16.01146915770754 1.8639467179076714 14.484874328263315 0 0 0
421 1 0.3362387414293977 3.661352396687564 14.21041489101369 0 0 0
439 1 16.17733146176351 3.614116279933019 15.931403086203241 0 0 0
20 1 15.908460237565226 1.5452118756330526 17.68206465173481 0 0 -1
424 1 1.8068077171700467 5.437824975589672 14.282616883514118 0 0 0
445 1 3.509788043037511 7.053230723846586 14.148197543412278 0 0 0
24 1 1.7893845447592207 5.4180207983685325 17.63829350127032 0 0 -1
426 1 3.622271921442772 5.380205109898458 15.895979032701934 0 0 0
427 1 5.258668238484403 3.541399847356313 15.803550247343017 0 0 0
428 1 5.475545207989794 5.329575835478249 14.04399172452912 0 0 0
430 1 7.065083232588736 5.04239339196791 15.838528909504817 0 0 0
449 1 7.363483941708265 7.11071712896375 14.071043422631126 0 0 0
28 1 5.360846783504776 5.432410651635236 17.479060893968807 0 0 -1
49 1 7.060390432994083 7.078182988043404 17.64834444023103 0 0 -1
432 1 8.825522386131565 5.114148094953135 14.209037283397754 0 0 0
451 1 8.744411029588774 6.962068275725749 15.766849149565017 0 0 0
484 1 1.5129182345036 15.97283452805879 14.277925352526005 0 0 0
486 1 3.5302348933546392 16.137057403795527 15.917664006303331 0 0 0
434 1 10.62196056253608 5.092653408112127 15.941295600650593 0 0 0
435 1 12.307653352274116 3.4559638104193047 15.764858005454846 0 0 0
436 1 12.222697882807037 5.225354412584971 14.240256942960592 0 0 0
462 1 0.09699593033342424 12.510670470707705 16.048408720240616 0 0 0
422 1 0.06114177600341719 5.5910397675719095 16.079680743047632 0 0 0
437 1 14.201258477415738 3.4017846474385247 14.171465627102506 0 0 0
438 1 14.236975102890005 5.2482405968439325 15.940499530529188 0 0 0
440 1 16.098740104151695 5.369991317333029 14.070264252670182 0 0 0
457 1 14.027876420564068 6.920400975059401 14.283050184612462 0 0 0
477 1 14.270546548370612 10.679397987614207 14.028738319470923 0 0 0
443 1 1.7388707152680496 7.210091561398889 15.851392797241747 0 0 0
444 1 1.8074847973730515 8.860988164965391 14.255587792203817 0 0 0
446 1 3.7775775467425756 8.922050423728981 15.780590546298244 0 0 0
463 1 1.9720412254419615 10.567388170207465 15.898627140534883 0 0 0
465 1 3.6794567740243256 10.46903256535788 14.291951765136794 0 0 0
447 1 5.269008809899071 7.012836696967828 15.832559028628078 0 0 0
448 1 5.621558659018811 8.765000981233634 14.266402999380801 0 0 0
467 1 5.4943907575709545 10.837343244791553 15.773519055433256 0 0 0
450 1 7.091399889806304 8.885321408583405 15.975093857444858 0 0 0
452 1 8.953146254638535 8.905187268927206 14.093998185777936 0 0 0
453 1 10.629906668470934 7.115451852951779 14.119461881251782 0 0 0
469 1 7.275066204459304 10.507788408112095 14.088051378934294 0 0 0