ITEM: TIMESTEP
0
ITEM: NUMBER OF ATOMS
500
ITEM: BOX BOUNDS pp pp pp
0.0000000000000000e+00 1.7699999999999999e+01
0.0000000000000000e+00 1.7699999999999999e+01
0.0000000000000000e+00 1.7699999999999999e+01
ITEM: ATOMS id type vx vy vz
1 1 -0.419312 -2.01158 -6.19301
2 1 0.374382 1.0958 3.2743
3 1 0.647709 -2.09828 4.1239
4 1 6.42366 4.72112 4.26951
101 1 -3.60285 -5.82491 1.56854
104 1 2.21138 -4.98286 -0.745517
5 1 -1.94747 0.28488 -3.63345
6 1 5.51333 2.27399 1.71797
7 1 -2.43353 -0.693928 -1.32743
8 1 -0.881714 4.94963 1.06739
105 1 2.01234 0.186521 5.44686
108 1 1.369 4.74875 1.2057
9 1 -2.39147 4.94513 3.3404
10 1 3.04218 -1.55728 6.53664
11 1 6.54708 1.34977 -0.551906
12 1 -0.822515 -0.0167328 4.64339
109 1 -1.09279 2.49248 -1.27589
112 1 -5.74335 2.61745 -4.59636
13 1 -0.9451 4.4565 -2.0861
14 1 1.70583 3.96552 5.03379
15 1 -3.42208 -6.31747 -4.87134
16 1 6.11069 3.99957 5.91023
113 1 -1.50304 3.00415 1.84354
116 1 -1.18703 2.96848 -0.385484
17 1 -2.59505 -1.35075 -2.54382
18 1 3.20194 -4.55136 5.31725
19 1 4.18338 -1.57194 -6.07796
20 1 6.3134 -4.4136 -3.80164
117 1 2.64351 -1.26691 4.10301
120 1 -3.68367 -0.630405 1.44837
21 1 3.27449 -5.87338 4.98833
22 1 4.06327 5.53708 4.93061
23 1 -1.06299 -3.03283 -2.94138
24 1 -5.90709 3.68985 -5.15678
121 1 4.52824 2.834 -0.983655
124 1 -4.77238 -1.43018 0.107294
25 1 -5.66889 -5.48808 0.837139
26 1 -2.01766 2.40649 -4.95725
27 1 6.29705 6.5646 3.24307
28 1 3.18121 -2.32119 -2.38579
125 1 1.53191 2.78495 5.71715
128 1 0.820493 6.01985 2.73083
29 1 -4.4206 2.31592 5.0517
30 1 -4.00017 4.10192 -0.91362
31 1 -4.78686 1.85349 -1.43154
32 1 -0.0150831 0.242599 -0.0224211
129 1 -4.56139 -0.564173 -2.16736
132 1 2.31555 5.81166 -3.19755
33 1 -3.88567 -6.31988 6.49295
34 1 5.59658 -1.03132 2.99853
35 1 -0.172849 -2.20202 0.570491
36 1 -4.67322 2.85885 1.1331
133 1 -5.39325 4.10286 1.8782
136 1 5.02575 1.53731 -4.19085
37 1 4.25795 5.09065 -5.233
38 1 2.17021 4.34202 -4.14365
39 1 3.41523 -3.83623 -0.446251
40 1 1.80593 -1.78341 -2.21388
137 1 -2.50714 -4.18296 2.72039
140 1 -3.16262 4.0626 0.466507
41 1 -4.71193 1.62772 -3.94813
42 1 -3.92002 0.699722 -4.80493
43 1 -1.91951 2.70108 -1.43155
44 1 -3.8939 -1.91332 -3.94129
141 1 4.39895 -1.51615 -3.42944
144 1 2.42822 3.45667 -2.4929
45 1 2.62888 -0.357786 -0.667776
46 1 3.75888 6.20292 1.9129
47 1 -5.8016 -2.42914 1.19285
48 1 4.79288 -3.46983 2.30514
145 1 -1.35435 -4.25185 0.760713
148 1 -0.27552 -0.677696 -1.2225
49 1 1.11698 2.53906 2.58989
50 1 3.84559 -3.93726 2.83984
51 1 -0.613529 6.22252 -6.22911
52 1 0.752079 -1.05408 -3.0417
149 1 -3.79707 2.39243 5.3797
152 1 3.6324 -2.97474 -0.561212
53 1 -5.06991 -2.61145 1.81665
54 1 -0.93308 -1.30013 4.09633
55 1 0.104049 2.67263 0.891489
56 1 4.94443 -1.63538 5.519
153 1 -5.10237 -2.70688 -4.70919
156 1 3.78932 -1.66523 -2.75607
57 1 -4.36623 -5.97861 2.57222
58 1 5.07528 2.92522 -0.211545
59 1 -0.761196 4.69887 -6.02618
60 1 -0.373717 -1.86553 -5.86005
157 1 -3.63871 1.81703 -3.8822
160 1 4.54037 -1.00686 -1.45901
61 1 1.76905 1.81245 -2.84281
62 1 -3.33531 -2.46701 1.02366
63 1 6.54271 5.7968 -6.14761
64 1 4.92781 4.66936 4.3352
161 1 -5.33272 -4.41488 0.658227
164 1 -4.60944 -2.95655 6.41912
65 1 -4.90535 -2.83026 -0.691663
66 1 2.51611 0.208066 3.93592
67 1 2.13285 -0.282951 -2.54689
68 1 -3.4088 -3.9982 4.34363
165 1 -5.9212 0.235774 2.13661
168 1 -0.972632 -3.76537 -4.11666
69 1 -6.04947 0.122455 6.50993
70 1 -4.28774 1.66638 -3.5326
71 1 3.69669 -0.15068 -0.0441818
72 1 0.756169 2.75969 -3.35258
169 1 5.00193 3.81857 2.66007
172 1 -5.0013 -5.10795 0.562628
73 1 -2.76719 1.37479 4.35924
74 1 2.05163 -1.77271 -4.07978
75 1 -4.09277 6.1723 -6.25087
76 1 -3.38255 -4.20348 -4.37971
173 1 -5.23744 -0.32649 5.88947
176 1 -4.07763 0.766131 -5.45695
77 1 -5.07277 1.39842 -1.03147
78 1 -3.57945 -2.07062 1.53888
79 1 2.92378 -4.62588 -0.534117
80 1 3.32613 5.04721 4.73405
177 1 -1.8073 5.80052 4.36629
180 1 0.734654 4.76212 5.12496
81 1 -2.62692 -4.53887 -5.39581
82 1 -1.63999 -0.312023 2.31097
83 1 5.09417 -4.22962 -2.25664
84 1 5.99682 -0.899135 4.00023
181 1 2.49407 6.40235 3.30084
184 1 -1.45341 6.01971 0.338611
85 1 -5.17211 -6.02587 0.420084
86 1 1.67928 -0.668743 6.40198
87 1 -2.09785 5.18711 5.62033
88 1 -0.310517 -4.50735 4.8952
185 1 1.23162 -5.56512 4.64265
188 1 -4.04978 1.35407 -6.28428
89 1 -2.14442 1.53699 3.49969
90 1 -2.16263 -5.75616 1.32676
91 1 0.106411 3.415 -1.4855
92 1 -5.50874 -2.03633 6.38517
189 1 3.99691 -5.88169 -4.82898
192 1 6.42308 -4.9491 -4.67782
93 1 -2.31589 2.52582 0.794233
94 1 -5.26974 2.24075 1.42204
95 1 1.97075 2.35882 -1.00187
96 1 -5.68434 -5.42828 5.94732
193 1 -3.67202 0.246425 -0.653034
196 1 3.25322 0.328604 4.0244
97 1 4.42037 -5.02061 1.11825
98 1 -2.03431 -4.69989 2.24646
99 1 3.52409 -5.2549 -1.85723
100 1 -0.687041 4.36377 -2.21169
197 1 -0.560183 -6.19043 0.594581
200 1 4.32328 -0.654761 -5.33425
102 1 0.0397326 -0.467504 -0.697151
103 1 3.27739 3.99456 -0.271562
201 1 -6.00077 0.485422 3.52364
202 1 3.60761 -3.95088 -5.33853
106 1 -3.8598 -0.163661 2.53503
107 1 -2.32688 -0.402475 1.43538
203 1 -2.56102 -0.803503 1.02922
204 1 1.96463 3.44307 2.77898
110 1 4.36317 -5.55444 2.36513
111 1 4.32435 4.29015 -5.998
205 1 1.55497 0.809415 -5.18716
206 1 1.43554 6.31984 6.08028
114 1 0.133736 -4.83257 5.87932
115 1 4.90377 3.1951 3.59785
207 1 -5.59432 1.15937 -6.09814
208 1 0.812724 5.31175 -3.30617
118 1 -2.97197 0.791695 -4.33692
119 1 1.82335 5.31523 3.3207
209 1 -0.729226 -3.38904 -3.28136
210 1 -1.0271 2.84622 -3.38032
122 1 -3.14744 -0.495042 3.97439
123 1 3.64097 -1.64293 -4.58554
211 1 -5.31868 -2.06687 -0.476579
212 1 -5.91125 -1.3612 3.71138
126 1 -6.27424 1.32173 -4.40519
127 1 -1.47569 -4.87277 5.55041
213 1 5.01773 -3.33549 0.738951
214 1 6.05886 2.91711 6.31548
130 1 6.25954 -0.53228 1.43644
131 1 4.54695 5.55053 -2.71083
215 1 4.31828 6.22719 -5.67685
216 1 -2.21784 1.33516 0.512003
134 1 -2.8266 2.70007 -5.35647
135 1 -5.10286 2.04933 4.73941
217 1 4.84668 4.63162 6.44328
218 1 -4.40722 6.3115 -4.11774
138 1 -1.16437 -5.8584 -2.93873
139 1 -1.84347 -4.81745 0.33828
219 1 -3.66421 1.76657 5.21421
220 1 -5.78981 1.01959 -4.86579
142 1 -0.222934 0.10198 0.0179992
143 1 2.83341 -4.12618 -3.9438
221 1 1.60828 0.756501 1.51058
222 1 4.372 0.0453205 -4.28397
146 1 -0.750572 1.44874 0.537024
147 1 0.826598 4.73498 3.4224
223 1 -1.71634 2.14826 5.2717
224 1 4.43437 -3.47804 -5.69102
150 1 5.21695 -5.44197 -3.44942
151 1 -4.86102 2.10769 -1.40323
225 1 2.37508 6.29228 -2.63745
226 1 -6.41954 0.59208 4.08472
154 1 0.862382 -4.18072 1.56081
155 1 1.80438 -1.73368 2.54376
227 1 2.05401 -0.758366 6.46576
228 1 5.43699 4.72737 5.39851
158 1 4.48379 -4.02134 5.02731
159 1 -2.27506 0.480679 1.73653
229 1 -0.603377 -4.94915 -5.50724
230 1 -0.836358 1.07308 -2.04942
162 1 4.4036 -1.32295 -2.75807
163 1 1.89609 -5.76829 5.17168
231 1 -5.37809 -0.685994 2.15951
232 1 1.47213 -2.07379 0.15959
166 1 -2.82909 -0.129726 1.50545
167 1 -4.45075 1.92459 -1.12466
233 1 -4.6385 2.11403 1.30259
234 1 -0.506062 -5.59169 -0.52386
170 1 -0.274316 6.5704 -3.06336
171 1 -4.54311 -5.00683 -1.1009
235 1 4.557 5.66739 0.444608
236 1 5.9598 0.247187 -0.833144
174 1 0.0276847 4.81654 -2.3438
175 1 -4.11528 4.43224 5.79371
237 1 4.42862 3.68993 -3.8321
238 1 6.54167 1.23241 0.716634
178 1 -2.91025 -0.621656 5.66044
179 1 0.881225 0.850489 -3.11253
239 1 -5.64007 -1.54111 5.63582
240 1 6.31252 -6.10881 -4.16668
182 1 4.77725 6.46824 -5.97246
183 1 3.83465 -6.00849 -6.15237
241 1 -0.819988 3.5126 2.64593
242 1 -2.57356 -3.80179 -5.92826
186 1 5.76575 -1.72323 -3.53593
187 1 0.224798 6.30402 0.0367534
243 1 -0.513146 5.20428 -4.52399
244 1 5.37148 -5.37375 0.381727
190 1 -2.86863 -2.50156 4.76196
191 1 5.03538 -5.45207 -4.32974
245 1 6.13616 3.44226 2.06046
246 1 5.43076 3.97644 -6.11594
194 1 0.215102 -0.833412 4.80888
195 1 -2.74218 6.07423 -5.31845
247 1 6.04547 -1.43104 -1.4563
248 1 5.60926 4.22148 -4.29271
198 1 -3.35659 3.5998 0.770599
199 1 4.32258 0.501121 -5.31529
249 1 -2.43139 -3.66205 5.21549
250 1 2.97254 -3.28481 -4.56353
251 1 -5.90684 -5.16164 -5.71229
252 1 3.71169 5.19394 3.61914
301 1 -4.65808 -2.32433 -3.34646
302 1 5.80171 5.26087 -1.24302
303 1 3.42874 2.43328 3.71395
304 1 0.386347 -5.57776 -0.0739373
253 1 5.11465 2.39728 -3.93777
254 1 5.78145 2.36551 -5.51684
305 1 2.60068 6.19488 -3.27323
306 1 1.45485 6.23241 4.11635
307 1 -5.95776 -3.88421 -1.60288
308 1 4.94585 -3.72812 -1.48022
255 1 2.53136 -3.18466 3.36789
256 1 5.56936 -3.99005 -1.42278
309 1 -0.473561 -4.76187 -0.594111
310 1 -2.66701 -3.04052 -2.38385
311 1 -3.01958 5.72457 0.582576
312 1 -4.98927 2.18808 -0.782518
257 1 5.05997 5.2938 -6.21816
258 1 -3.20768 -0.07071 6.46157
313 1 2.45933 -6.17452 -4.67125
314 1 3.7832 -0.709241 1.01584
315 1 -4.36403 5.13273 0.630165
316 1 -0.296984 2.19136 2.35572
259 1 -3.7742 -2.84205 -4.10544
260 1 -4.49475 2.60498 6.60535
317 1 2.84175 6.13801 1.73049
318 1 -4.4334 -5.14139 -3.06044
319 1 -0.0827192 6.24052 -2.43456
320 1 0.408892 -3.26775 -3.49697
261 1 5.62606 0.94905 4.18199
262 1 0.0247081 -6.2525 -3.7532
321 1 -2.22644 -0.344944 -5.59266
322 1 4.94509 -3.57139 -3.38311
323 1 -5.53387 4.25213 4.35767
324 1 -2.79512 -0.63163 -6.14894
263 1 -5.28472 -2.82103 -1.33662
264 1 -1.47167 -2.26863 -2.06834
325 1 1.45034 -4.66585 3.06893
326 1 -3.87654 4.23486 -0.242849
327 1 -0.17534 -5.11404 2.05534
328 1 -2.71445 4.70727 5.16032
265 1 -1.27348 4.4213 3.76181
266 1 3.08516 -6.28079 1.22081
329 1 -6.36099 -2.33502 -1.06691
330 1 -0.726425 4.73154 -2.42739
331 1 -0.0935238 6.45012 1.18308
332 1 5.54711 -1.43949 -0.665516
267 1 -3.92115 -5.3111 1.46455
268 1 1.2582 -0.372387 0.679179
333 1 -1.40956 2.82005 -1.66062
334 1 -4.35423 1.01222 1.12348
335 1 3.86983 0.982745 -0.874777
336 1 0.0142119 -0.860662 1.31648
269 1 -4.46698 1.93755 -4.0232
270 1 0.694684 -4.73861 0.763793
337 1 3.71613 1.89638 5.22017
338 1 4.43887 -5.83764 -4.58025
339 1 2.91171 0.265448 -5.58324
340 1 5.70425 3.52888 3.52753
271 1 2.69141 -1.29643 1.41874
272 1 -4.83016 1.37373 -0.532721
341 1 3.85829 1.78387 -2.81351
342 1 -2.52245 -1.80747 -4.00604
343 1 -3.32664 0.429625 0.730488
344 1 0.571269 -1.22091 -2.01913
273 1 -4.13238 2.57143 1.07708
274 1 -0.704603 -5.10911 -5.85381
345 1 -4.97626 0.157175 5.68014
346 1 -6.3373 6.27395 1.05293
347 1 0.273649 -3.75919 -4.10876
348 1 -3.03421 6.55838 2.70079
275 1 -5.09907 0.787075 -4.07501
276 1 0.95658 -5.26977 -4.99064
349 1 -0.56331 6.18157 -6.30087
350 1 -0.914133 5.49358 1.08936
351 1 3.06385 -0.882616 -4.05919
352 1 2.01367 -3.37766 6.18597
277 1 -2.11276 1.3126 -2.0153
278 1 -4.94866 -3.41562 4.52156
353 1 3.22422 6.27831 -3.66505
354 1 0.888366 4.00734 -6.24794
355 1 6.46322 -5.54891 4.32977
356 1 4.15436 4.21759 -4.72344
279 1 3.17968 -2.0442 3.9106
280 1 1.22513 2.1467 4.95495
357 1 -4.90653 3.32555 1.34298
358 1 -5.82187 -5.37482 -4.52507
359 1 2.57373 -5.37853 -1.97726
360 1 -5.84736 -5.26479 0.651785
281 1 -2.22265 -1.58088 -0.534422
282 1 1.94902 0.745178 5.98876
361 1 -2.03034 -2.92456 -1.35526
362 1 -1.54117 -1.61074 4.01734
363 1 -2.6617 -4.70538 0.936135
364 1 -2.77394 4.79233 6.40953
283 1 4.17406 -2.36121 0.165767
284 1 -4.5692 -1.93136 4.48862
365 1 -1.086 -0.214353 -5.3552
366 1 4.75193 -3.47035 -6.33259
367 1 -3.12686 -5.17639 6.1146
368 1 -3.36654 5.15236 5.92234
285 1 -2.69126 4.90829 -5.57165
286 1 3.29904 4.25385 -5.60733
369 1 5.77354 -0.644468 -1.15687
370 1 -3.7488 -4.47514 0.777967
371 1 -4.26653 -5.44694 3.93277
372 1 6.38757 -4.50072 -0.607835
287 1 0.0996242 6.21655 -2.68861
288 1 6.52842 -0.654718 -4.61977
373 1 -2.14564 -5.89791 -4.61255
374 1 -2.39337 -1.04545 -0.802014
375 1 1.77533 3.3494 -0.246368
376 1 -5.73632 3.8944 4.54682
289 1 0.306361 0.629494 -3.41639
290 1 -6.04342 -2.03889 2.24238
377 1 2.23613 -4.51519 2.94678
378 1 2.63493 -2.53855 6.44399
379 1 -4.11724 -2.60912 2.05137
380 1 4.83715 0.272613 -2.02952
291 1 4.2225 -6.27341 -4.60035
292 1 -6.07206 -2.99269 -3.60298
381 1 -0.88489 3.51384 -2.53085
382 1 -1.51571 -2.15657 -1.60149
383 1 6.42376 6.50894 2.72719
384 1 6.32476 4.70858 1.25751
293 1 -3.04944 -2.59999 -0.38466
294 1 -4.4856 0.640828 5.27345
385 1 4.94128 -2.63801 -3.0911
386 1 4.5108 -4.63133 -1.17245
387 1 3.25946 1.35973 -1.99622
388 1 0.0141675 -1.60624 1.82015
295 1 3.95757 -4.8772 -3.95071
296 1 4.57599 0.261234 1.50552
389 1 0.534145 -1.84828 -1.62541
390 1 -3.93857 0.513333 5.14538
391 1 -4.87952 2.87603 4.20954
392 1 0.961443 -1.4427 -2.58416
297 1 3.72365 -1.64832 -4.30959
298 1 5.65275 -4.91686 4.77756
393 1 2.86993 -0.604107 1.91489
394 1 4.52569 -1.04099 -3.66134
395 1 -4.22378 -1.11113 -0.895379
396 1 0.285013 5.43404 0.235038
299 1 -4.23324 -4.29995 -2.5364
300 1 4.14389 -3.02126 -3.23047
397 1 -4.37377 -2.81309 2.13547
398 1 2.3523 0.00010267 1.90737
399 1 -1.59016 6.14104 0.839914
400 1 6.44209 2.90921 3.4614
401 1 5.37989 6.0274 -0.265053
402 1 -5.9072 1.84776 6.23951
403 1 -0.788206 5.24046 6.34277
404 1 -2.32231 -1.39227 0.810055
405 1 -0.0990282 4.83896 -1.99489
406 1 4.52666 2.23451 0.353618
407 1 3.8764 -5.53357 2.43601
408 1 1.9767 -1.54694 -1.56319
409 1 -5.18911 -6.04327 6.51293
410 1 0.539347 -5.3161 -4.54334
411 1 -3.30999 -5.40547 -0.213847
412 1 5.73852 -4.90199 -5.09139
413 1 -0.442805 5.70813 -2.99656
414 1 -1.18193 -2.26774 -0.154519
415 1 1.06779 -6.06873 -5.74135
416 1 0.692037 2.71863 -5.17791
417 1 -5.76723 3.87293 -5.67846
418 1 -4.18483 4.24719 -0.774254
419 1 6.39209 -6.3236 -4.02837
420 1 5.02569 0.548019 3.74574
421 1 4.70875 -2.01005 6.57607
422 1 -4.15217 -5.2765 -1.36069
423 1 -4.7853 2.09615 -0.550483
424 1 2.0766 2.36369 2.87296
425 1 -2.19501 -4.62976 -0.689224
426 1 -3.30916 -4.4851 2.17574
427 1 4.91639 -5.45756 -5.692
428 1 -2.51294 2.13352 4.27298
429 1 -2.53176 -2.52835 -3.9315
430 1 -1.81174 -3.95062 -1.00523
431 1 4.38219 2.48804 2.01771
432 1 -6.05228 4.91114 3.32509
433 1 -4.81345 -3.57635 4.12063
434 1 -3.10217 -5.75522 4.03331
435 1 5.24745 0.776547 0.787122
436 1 0.254095 5.22576 6.02845
437 1 2.27441 2.4963 -1.92053
438 1 -5.60869 6.35321 -4.35507
439 1 -3.77837 4.91555 -0.456344
440 1 1.58853 6.46015 0.882123
441 1 1.48932 1.22624 1.06639
442 1 4.3463 -3.29894 4.70628
443 1 -1.30884 -5.58943 -1.35587
444 1 6.36999 -1.30277 -1.22611
445 1 0.0046799 -5.2338 2.14479
446 1 -4.03632 -6.04244 -5.38195
447 1 -3.85154 -4.20912 4.57729
448 1 0.612516 3.76518 1.24501
449 1 2.80141 3.47826 -3.12086
450 1 -1.34542 2.95187 6.18035
451 1 6.37893 6.09039 6.61458
452 1 -4.08802 -5.02232 -1.68139
453 1 4.21778 5.21096 4.0009
454 1 4.59537 1.26503 3.71305
455 1 2.02192 5.28684 6.60375
456 1 -6.30999 -2.27192 -5.39155
457 1 -4.89956 3.58821 0.784068
458 1 5.07435 0.29235 5.03808
459 1 3.16573 -2.68662 -1.87399
460 1 -6.16759 1.66481 -3.9643
461 1 -0.0293074 -5.07887 -4.09584
462 1 -0.16272 -0.782137 -3.4685
463 1 1.21601 4.62653 -1.20943
464 1 4.94807 -5.38234 -1.16371
465 1 -3.78546 2.65885 3.0711
466 1 4.58954 -5.76811 -4.78211
467 1 -3.1537 -1.84783 5.8772
468 1 -4.19596 -1.05006 -0.318852
469 1 -5.4374 2.28208 -5.2602
470 1 -4.81984 5.95387 -2.39628
471 1 -4.95565 -4.13543 -3.45088
472 1 -2.55913 4.95882 -0.462589
473 1 -0.980229 -1.59311 1.69536
474 1 2.90588 6.1317 -0.295927
475 1 -2.5806 -5.19715 -5.22194
476 1 -3.03325 -3.24806 2.7783
477 1 -0.376007 -1.39004 -0.661023
478 1 2.61391 -5.22027 -4.13284
479 1 5.3681 2.75265 -4.69001
480 1 -6.10364 -1.30672 -2.69888
481 1 5.10257 -5.92849 0.772417
482 1 -0.242597 -5.72296 0.952318
483 1 -4.97243 -0.384815 -0.429254
484 1 5.94102 -3.71383 5.04671
485 1 5.74184 -1.07784 0.299182
486 1 0.815682 3.07749 0.79764
487 1 4.89369 2.59183 6.41782
488 1 2.54406 2.43614 -0.0492572
489 1 0.0817688 4.79531 4.58242
490 1 5.05686 5.07719 2.2255
491 1 -1.82232 0.0490588 6.60161
492 1 -0.221412 -0.290762 -3.96094
493 1 0.89204 0.824739 5.63057
494 1 -5.25679 -0.772838 -3.00882
495 1 -3.48897 -0.832808 1.96214
496 1 4.56274 -1.75974 6.09985
497 1 -4.14161 3.39861 -4.25585
498 1 -1.55389 5.4034 4.83754
499 1 -2.72595 6.11981 -5.46164
500 1 -5.29784 -2.55131 -0.245793
ITEM: TIMESTEP
1000
ITEM: NUMBER OF ATOMS
500
ITEM: BOX BOUNDS pp pp pp
0.0000000000000000e+00 1.7699999999999999e+01
0.0000000000000000e+00 1.7699999999999999e+01
0.0000000000000000e+00 1.7699999999999999e+01
ITEM: ATOMS id type vx vy vz
1 1 -1.01597 2.63797 3.99395
2 1 3.34354 1.39251 2.76018
3 1 -1.04184 -4.30975 4.91194
4 1 -0.479726 -3.09054 -3.07234
101 1 1.38372 -4.09004 1.85811
104 1 -1.74153 -2.34296 -2.86215
5 1 -0.705857 6.43833 -1.1082
6 1 -1.81525 -2.73827 0.606554
7 1 -2.07225 -3.70679 -0.462866
8 1 -0.126876 -5.67891 2.60542
105 1 0.107398 0.0302287 -1.97636
108 1 0.739278 7.49528 5.34289
9 1 -5.70392 -4.42313 -0.941137
10 1 -1.59784 -4.87967 -5.9661
11 1 -3.56727 -1.3379 -0.875434
12 1 -3.14144 -2.08435 -2.84513
109 1 -2.06128 -3.01685 4.05343
112 1 4.3746 -7.42763 6.17906
13 1 3.49217 -2.32877 -4.07765
14 1 0.776272 0.575332 2.40581
15 1 -0.196276 2.67725 -4.41629
16 1 -1.97279 2.66636 1.26933
113 1 -0.355742 6.5763 -3.51287
116 1 -4.71334 8.78932 1.25319
17 1 4.8544 -2.3844 -7.69824
18 1 1.17043 0.490021 -1.11342
19 1 -1.28395 -0.0285661 -0.0467743
20 1 0.70767 2.46094 3.15931
117 1 3.54373 2.48056 -7.10276
120 1 2.95961 7.30196 -1.70668
21 1 -4.27489 -6.36537 -3.67948
22 1 -0.109836 6.80552 -4.81655
23 1 2.3619 -4.24875 -1.20809
24 1 6.56897 0.187381 -2.95376
121 1 3.10052 0.36287 -2.343
124 1 -10.0493 -0.891729 -0.226703
25 1 -1.94005 -0.708959 -2.30568
26 1 -5.28367 3.07876 2.9198
27 1 12.2636 -1.41233 5.89995
28 1 -3.15454 0.805448 2.02647
125 1 4.21251 -0.544215 0.0805598
128 1 -3.57269 -0.00398599 -5.5444
29 1 7.58501 0.12729 1.65273
30 1 0.426052 1.13186 2.2721
31 1 6.62814 9.10383 -0.210463
32 1 3.0161 -1.5983 -1.56342
129 1 1.31427 1.12232 -8.72848
132 1 -2.46894 4.20953 -0.287484
33 1 -1.70273 5.72129 2.33708
34 1 3.19109 -5.88436 -0.505262
35 1 0.340675 -0.366765 0.457514
36 1 1.22569 -2.02572 4.08036
133 1 -3.88682 4.20523 0.571738
136 1 -1.80202 -1.8787 -3.33474
37 1 5.36727 -2.41985 1.76172
38 1 -4.06759 3.3518 -1.90916
39 1 -0.628561 0.53078 5.71871
40 1 -1.74593 -8.4926 -2.42575
137 1 -1.72192 6.4351 4.12592
140 1 2.12167 -2.92767 -4.60545
41 1 1.78038 -2.19796 0.437671
42 1 -3.41521 -0.480652 7.91471
43 1 4.49587 -0.393965 0.694042
44 1 2.25497 1.50207 -4.96848
141 1 -0.202001 -0.561437 -5.16773
144 1 -1.12307 -5.66677 2.33176
45 1 -3.28951 -5.18774 3.76504
46 1 0.859931 2.87817 1.45166
47 1 5.23154 5.18234 -0.211289
48 1 -2.92463 -2.90154 2.16439
145 1 8.74762 -2.46146 -3.45908
148 1 -2.87783 0.665602 -3.43774
49 1 0.656738 -7.33503 4.10828
50 1 -0.492438 4.28397 -1.38591
51 1 2.39287 -3.04086 5.13633
52 1 3.20866 0.955584 -4.00543
149 1 -6.49918 3.08495 1.48607
152 1 -5.91523 0.478648 6.61178
53 1 1.56358 0.588529 0.594323
54 1 1.11556 -0.313889 1.11658
55 1 0.102778 0.651644 6.93009
56 1 -0.441796 4.00808 0.566617
153 1 -4.98247 -8.55019 0.965983
156 1 0.505073 1.87512 2.12173
57 1 2.18651 0.489945 1.38015
58 1 9.26594 -0.0966551 0.058481
59 1 2.06549 -1.14326 -4.64236
60 1 -5.94992 -10.8552 5.75549
157 1 0.0337302 3.75232 -0.739142
160 1 -8.03336 -1.59981 1.61531
61 1 -0.250373 2.19363 2.18502
62 1 -4.47771 1.38986 -3.36928
63 1 -2.17126 0.53366 0.365124
64 1 0.179657 2.80941 -4.94792
161 1 6.69164 -0.59288 -1.59841
164 1 -5.22013 3.65253 0.985519
65 1 -1.06132 6.1374 2.61784
66 1 -1.80533 2.06982 -5.14904
67 1 -1.44726 2.8057 1.45197
68 1 0.127902 2.52118 1.34071
165 1 -3.56789 -2.60547 -0.0574969
168 1 0.174068 -0.439046 7.64595
69 1 2.25488 0.37201 0.16165
70 1 0.817239 -3.64166 3.32487
71 1 -2.01954 2.51686 -5.72499
72 1 -1.3522 3.62368 2.12628
169 1 3.52336 3.09563 3.66995
172 1 -2.58256 -1.98223 -1.39814
73 1 8.8459 2.98426 0.0869836
74 1 -3.01302 -5.73084 3.09287
75 1 4.38028 2.30814 3.394
76 1 -2.2669 4.07665 5.53534
173 1 2.34753 -0.288776 -4.69173
176 1 0.761267 2.26418 2.45276
77 1 -8.1481 3.41247 1.11626
78 1 1.54509 2.0049 -1.17981
79 1 -6.36567 -0.769116 3.58536
80 1 -0.130253 1.0446 1.14101
177 1 -2.46893 2.35253 -9.89417
180 1 4.03358 0.900004 -1.35808
81 1 -2.80082 2.37921 -3.20801
82 1 5.33056 -2.67608 -2.02759
83 1 -0.310622 -8.87406 0.863829
84 1 -3.82815 4.28704 2.82246
181 1 -3.96403 -7.02891 -5.62273
184 1 1.56427 -2.38996 -5.63654
85 1 0.893134 -0.106185 -3.58701
86 1 0.288907 -0.244914 -3.95985
87 1 0.501892 -0.887805 -0.231972
88 1 2.94193 5.36711 -1.78322
185 1 -4.9976 2.07678 3.07911
188 1 4.21272 -3.64409 4.86545
89 1 -5.18501 0.356036 -1.22233
90 1 1.42285 1.48489 -8.48445
91 1 1.14592 1.62382 -0.64188
92 1 3.65602 -2.41755 -0.653537
189 1 3.56321 -4.25893 0.53812
192 1 0.801036 -5.413 -1.24402
93 1 3.24316 1.95175 0.270218
94 1 -1.17174 1.21048 3.8696
95 1 -3.70532 -3.64838 1.56169
96 1 3.14561 7.45159 1.32854
193 1 6.00057 -0.495505 5.87274
196 1 3.12002 -0.718583 -6.58656
97 1 0.533136 -5.07552 2.16136
98 1 -1.56248 1.06271 -2.77111
99 1 -7.63338 -2.56925 1.39684
100 1 1.6438 7.90807 -1.01124
197 1 -0.983572 -4.29136 -0.932576
200 1 -1.34078 0.820877 0.361093
102 1 -5.86834 -1.10329 3.19785
103 1 -3.63138 -1.48349 1.75922
201 1 2.46636 -1.12995 1.18437
202 1 3.54868 4.89422 -3.36422
106 1 2.5333 -3.39527 1.08719
107 1 -4.43948 -3.37971 -5.74754
203 1 -6.21831 6.21247 -0.500668
204 1 3.08189 5.55819 6.40052
110 1 -4.98776 6.95183 2.86323
111 1 -0.557489 5.06601 2.97632
205 1 1.62755 0.0222681 4.63937
206 1 -5.52527 -1.65055 -2.22212
114 1 -2.14691 -3.0233 0.581402
115 1 3.31438 -4.11129 -3.19338
207 1 -0.956929 -2.2037 -2.13741
208 1 -7.0808 -5.68894 -3.98277
118 1 -0.216079 -6.85746 4.61539
119 1 1.28622 -1.04761 0.415311
209 1 0.0675151 3.36384 6.38822
210 1 10.09 -0.664319 6.31901
122 1 -3.28786 4.3056 -0.137759
123 1 -0.0396156 7.02933 -0.0978827
211 1 -1.18116 6.85431 -6.0609
212 1 2.35912 -4.23547 -4.99462
126 1 -1.02807 0.230571 -2.74351
127 1 5.81181 0.359722 1.28962
213 1 -0.867423 -4.16848 -4.28961
214 1 -0.430965 4.12704 1.07297
130 1 3.19159 -3.47563 -2.57458
131 1 1.38381 4.7461 3.72495
215 1 -9.34078 -5.38284 2.96795
216 1 0.195313 0.0230978 -9.25156
134 1 2.21736 2.91032 -3.75024
135 1 3.25894 0.88886 -0.828205
217 1 -0.636485 1.12657 1.63196
218 1 2.41949 -4.909 -1.49765
138 1 -2.47929 6.62595 1.44905
139 1 1.07945 2.77883 4.06531
219 1 1.74019 0.477668 -5.51478
220 1 5.70635 3.00404 -1.51228
142 1 -0.20882 -0.596962 -5.15048
143 1 2.783 1.16853 4.40773
221 1 -2.25159 -5.21016 4.59983
222 1 -1.15071 -0.841134 -6.39438
146 1 -3.298 0.721729 2.5133
147 1 -6.975 -4.19169 -3.57095
223 1 -4.75495 0.719921 0.0121589
224 1 3.95818 5.83931 5.74118
150 1 -3.73569 4.92535 0.885377
151 1 -1.16044 4.75226 -0.80752
225 1 -2.71695 -6.76515 0.683248
226 1 -0.744612 1.59912 -6.03453
154 1 0.797322 -0.368391 -3.67991
155 1 0.61826 5.68939 -0.734041
227 1 5.35791 -3.00981 -3.52814
228 1 2.86901 2.72644 0.674977
158 1 -2.52214 4.74735 1.86585
159 1 -2.52675 -0.57797 -3.38403
229 1 -5.49287 -4.63262 -3.37906
230 1 -5.02172 -0.280532 0.924162
162 1 2.63562 2.36958 -6.06822
163 1 -4.39189 0.723278 5.64324
231 1 1.52453 1.0889 -3.0935
232 1 2.13425 -2.0834 4.9353
166 1 1.75298 1.50674 2.79686
167 1 -1.97689 -9.95409 8.37444
233 1 1.8743 -5.60558 1.96148
234 1 7.64704 0.0926561 0.565187
170 1 -0.154977 4.15238 2.25528
171 1 -2.32249 0.535992 1.09975
235 1 2.8614 -2.94293 -2.99996
236 1 2.19042 -4.96876 13.1558
174 1 1.58433 1.83907 -7.97371
175 1 2.65928 7.1559 4.34082
237 1 -5.97389 -1.89035 2.49106
238 1 -4.51285 -0.614262 -3.57635
178 1 -1.73028 -2.33051 0.647495
179 1 1.41505 -0.0852575 -1.28256
239 1 1.24858 2.72297 2.54323
240 1 3.13627 2.09802 -0.301959
182 1 -1.8348 -8.30112 -4.11022
183 1 5.15766 2.46524 3.73352
241 1 3.35989 1.65613 -4.72975
242 1 0.889271 -2.51381 -3.94886
186 1 4.41153 1.63139 -0.252574
187 1 0.09902 -1.6923 0.0121181
243 1 1.9466 -0.570967 4.63112
244 1 3.98136 0.593851 3.51438
190 1 -1.17506 3.61071 -1.24211
191 1 3.9706 1.73943 -1.90892
245 1 -2.00465 4.12844 -1.17599
246 1 -4.58754 0.694153 4.44618
194 1 -0.791066 5.04108 0.553464
195 1 0.467564 -0.701694 5.23385
247 1 0.190425 5.63316 2.27902
248 1 -2.77166 -3.73866 -6.0549
198 1 -1.38378 -1.72966 1.47566
199 1 3.47794 0.732 -1.40532
249 1 -0.960846 -1.30917 1.12628
250 1 6.29038 -1.68281 3.02079
251 1 -0.450142 6.33829 2.18219
252 1 0.386796 -0.0869105 2.77423
301 1 4.69708 -5.47632 -1.55363
302 1 2.21533 -2.27028 -0.955427
303 1 -0.358723 -6.73308 1.8819
304 1 2.70733 -10.1102 2.25026
253 1 -0.856383 1.77843 3.07835
254 1 5.43178 3.61355 -1.05961
305 1 -3.76992 -5.51176 -0.103047
306 1 -0.375804 4.55388 5.49015
307 1 6.71254 1.32028 -1.9977
308 1 -0.328009 -3.81745 -0.295217
255 1 -3.61992 0.0335253 0.234084
256 1 -0.69188 2.89754 -3.8191
309 1 -4.15174 0.106228 2.59024
310 1 0.865451 6.94853 1.09893
311 1 2.38408 -1.92337 0.88844
312 1 -1.84391 3.83697 0.456225
257 1 0.919234 -4.76829 1.39035
258 1 -0.223948 6.47131 6.29541
313 1 3.93551 -2.49567 0.863725
314 1 -3.81425 2.34019 -5.2719
315 1 -3.39202 2.0116 -1.31626
316 1 4.6209 1.33816 -2.96787
259 1 -3.72248 1.78387 -2.58837
260 1 7.40607 -1.6068 1.69007
317 1 1.90304 -1.06141 2.03263
318 1 -0.180275 2.40771 1.79307
319 1 -3.09097 -2.81077 -3.12182
320 1 4.86608 -0.116673 -3.26822
261 1 1.88532 -9.75218 0.672392
262 1 0.323173 -0.856322 -0.475227
321 1 2.79485 -1.32166 6.93135
322 1 -3.06415 0.503706 1.57649
323 1 2.27259 0.580698 -7.8983
324 1 -1.44848 -2.53408 0.0220041
263 1 2.31438 3.39992 6.86944
264 1 0.595101 2.75045 0.385852
325 1 1.70106 5.8516 -2.6669
326 1 5.59519 6.2598 -3.08974
327 1 4.23049 -2.53756 -5.70352
328 1 -1.01566 -5.03748 1.52367
265 1 0.363287 0.488819 -0.772125
266 1 -3.62318 2.26281 -1.67884
329 1 -2.30728 0.571652 7.78742
330 1 -3.22049 -0.426151 -1.8316
331 1 -2.72784 -3.43391 -0.303424
332 1 -3.72821 -3.83465 3.49622
267 1 -0.331664 -3.30012 -2.45468
268 1 -1.16995 -0.725641 -1.47722
333 1 -2.33737 0.076978 10.4494
334 1 3.25471 -0.297986 2.59585
335 1 -1.72838 0.931382 5.48486
336 1 -1.4324 -2.00815 -2.6031
269 1 -2.13216 3.29365 -0.541587
270 1 -0.399179 -0.694158 -1.33919
337 1 -3.7998 -4.3164 2.38264
338 1 -7.0007 2.55629 -0.623628
339 1 4.66928 0.25305 -2.00938
340 1 -2.35295 -2.75788 5.83237
271 1 -0.777961 2.79312 -6.882
272 1 3.4697 0.567078 -4.5582
341 1 1.81403 -2.23552 3.45131
342 1 0.87799 2.78188 -5.35157
343 1 2.04349 -5.12288 -0.272605
344 1 -4.85462 0.944618 3.23291
273 1 0.996056 -5.45177 -5.78544
274 1 -0.387387 -6.23391 2.35556
345 1 -0.385414 -2.75921 -0.87843
346 1 4.43308 2.94645 -2.84956
347 1 -6.45757 2.42525 1.11
348 1 -2.73237 -2.28141 0.99168
275 1 0.0843988 1.02969 -6.33931
276 1 -3.33263 3.1953 -2.84617
349 1 0.547433 2.40147 0.612122
350 1 -7.25937 -8.25796 -5.87301
351 1 -4.94102 -1.44668 2.13806
352 1 -0.57745 1.22185 -0.345179
277 1 0.364019 -4.47582 0.76909
278 1 -0.635809 6.7228 -8.54405
353 1 4.81492 -0.358444 -6.2275
354 1 -4.42746 -0.337086 9.37309
355 1 4.19272 1.04119 -4.62133
356 1 1.77091 3.08078 -1.19706
279 1 2.46092 -1.42177 -0.638963
280 1 0.684542 0.359136 -4.48885
357 1 3.40269 1.52178 0.932579
358 1 4.27056 -0.138288 -3.03681
359 1 4.73925 -0.544492 3.86179
360 1 0.0773118 2.45945 -5.84131
281 1 1.30595 0.605469 1.53913
282 1 -0.835181 0.450269 0.383435
361 1 5.10315 -0.309571 -2.34607
362 1 6.18724 -0.617965 -6.6698
363 1 -9.09248 -5.81466 2.09893
364 1 -3.60229 -6.25417 1.28417
283 1 6.12262 1.37476 1.60874
284 1 2.0499 0.0472674 -4.86074
365 1 4.05726 -2.7224 -4.02672
366 1 -2.34825 -4.51194 5.07289
367 1 4.65172 -0.591636 2.56751
368 1 -2.37058 -6.56501 2.35072
285 1 3.55066 -6.90273 2.05816
286 1 0.716985 -2.26122 5.35709
369 1 -0.446102 2.61017 2.28135
370 1 -4.09163 -1.39657 2.83407
371 1 4.80946 1.43426 -5.04891
372 1 -2.29731 4.36621 0.863242
287 1 -6.29954 -4.46556 -0.00631832
288 1 -3.6108 -3.00191 -0.45755
373 1 0.868425 -0.685129 -1.44194
374 1 4.16006 2.3154 -0.0325545
375 1 2.01849 1.04614 0.241807
376 1 -1.0092 -1.245 -0.280296
289 1 4.94432 2.67791 -2.21172
290 1 -0.803389 4.04206 -5.07647
377 1 2.6246 -2.48331 2.22791
378 1 -2.58652 3.44347 -1.86845
379 1 5.43678 3.37412 -3.12254
380 1 3.91262 3.97144 2.38802
291 1 0.433458 -5.1342 -6.26631
292 1 1.2099 -2.11568 0.529756
381 1 5.80959 -1.1639 3.14889
382 1 -2.7052 0.271378 4.67883
383 1 -1.54341 -3.09924 -0.148781
384 1 0.00891241 -2.97132 1.33468
293 1 -0.529902 2.29091 -4.65817
294 1 1.72656 -2.49156 -6.89844
385 1 -2.1702 3.23214 1.47677
386 1 -4.39171 3.18582 2.52094
387 1 -3.01626 -2.93184 2.26989
388 1 2.60197 3.40108 -4.64016
295 1 -5.64939 0.283219 -2.75689
296 1 -0.444128 -1.17952 2.46391
389 1 -4.1662 4.6894 1.84087
390 1 -1.75869 2.9769 -3.80244
391 1 -1.60595 3.14875 -2.37785
392 1 -0.938588 2.1781 0.818368
297 1 -2.09043 -2.90433 6.09359
298 1 -6.10072 -3.10924 -0.799744
393 1 -4.73271 7.06839 -0.570015
394 1 -6.1518 -0.918988 2.02069
395 1 -0.792227 4.33684 0.765342
396 1 4.33731 -6.50624 -0.450896
299 1 8.8868 -4.63312 -0.695559
300 1 -4.57117 -1.4741 -0.487943
397 1 4.53562 2.73002 -8.2782
398 1 7.3623 -0.559138 1.37238
399 1 1.71076 2.42718 1.59169
400 1 -6.94811 -2.96805 -5.33157
401 1 1.71277 2.24876 -6.70897
402 1 -6.82395 -6.61537 -0.219113
403 1 -0.505521 -0.028845 2.78516
404 1 -9.87465 -2.96596 3.2337
405 1 2.65113 1.96099 -0.380067
406 1 0.511564 -5.66361 3.13251
407 1 -1.0331 3.20031 -0.747337
408 1 -1.01095 5.75264 2.70167
409 1 -3.18673 5.90016 -0.601409
410 1 -2.46347 3.4404 -1.19083
411 1 5.17112 0.193021 -3.85007
412 1 10.5002 0.346942 0.934015
413 1 -2.00731 2.53271 2.79803
414 1 4.19627 -1.23972 3.1709
415 1 -0.535414 4.19665 3.5112
416 1 3.28866 -4.99758 6.08857
417 1 1.6891 1.19252 2.30923
418 1 -1.64227 -5.54892 -3.42521
419 1 -4.04084 1.5996 1.36177
420 1 2.01023 3.345 -6.14185
421 1 -3.41812 7.41318 4.01495
422 1 -1.83471 1.42328 -0.615503
423 1 4.99969 -2.82684 -1.23526
424 1 5.25617 4.13178 0.548436
425 1 -3.02263 -2.94414 -2.24571
426 1 4.01436 3.66837 6.43595
427 1 -0.181734 1.04334 0.168089
428 1 3.56457 2.76352 0.357634
429 1 -7.31164 -3.83882 1.35626
430 1 1.90834 -3.32466 -0.95083
431 1 1.14175 5.73136 0.257966
432 1 -2.19068 3.52059 3.54584
433 1 -2.24787 -1.99267 1.22798
434 1 -2.57077 -1.95333 -0.394603