Generated by pymatgen.io.lammps.data.LammpsData

400  atoms

  1  atom types

0.000000 4.082000  xlo xhi
0.000000 4.082000  ylo yhi
0.000000 424.528000  zlo zhi

Masses

1  107.8682

Atoms

1    1 0.000000 0.000000   0.000000
2    1 2.041000 2.041000  -0.000000
3    1 0.000000 2.041000   2.041000
4    1 2.041000 0.000000   2.041000
5    1 0.000000 0.000000   4.082000
6    1 2.041000 2.041000   4.082000
7    1 0.000000 2.041000   6.123000
8    1 2.041000 0.000000   6.123000
9    1 0.000000 0.000000   8.164000
10   1 2.041000 2.041000   8.164000
11   1 0.000000 2.041000  10.205000
12   1 2.041000 0.000000  10.205000
13   1 0.000000 0.000000  12.246000
14   1 2.041000 2.041000  12.246000
15   1 0.000000 2.041000  14.287000
16   1 2.041000 0.000000  14.287000
17   1 0.000000 0.000000  16.328000
18   1 2.041000 2.041000  16.328000
19   1 0.000000 2.041000  18.369000
20   1 2.041000 0.000000  18.369000
21   1 0.000000 0.000000  20.410000
22   1 2.041000 2.041000  20.410000
23   1 0.000000 2.041000  22.451000
24   1 2.041000 0.000000  22.451000
25   1 0.000000 0.000000  24.492000
26   1 2.041000 2.041000  24.492000
27   1 0.000000 2.041000  26.533000
28   1 2.041000 0.000000  26.533000
29   1 0.000000 0.000000  28.574000
30   1 2.041000 2.041000  28.574000
31   1 0.000000 2.041000  30.615000
32   1 2.041000 0.000000  30.615000
33   1 0.000000 0.000000  32.656000
34   1 2.041000 2.041000  32.656000
35   1 0.000000 2.041000  34.697000
36   1 2.041000 0.000000  34.697000
37   1 0.000000 0.000000  36.738000
38   1 2.041000 2.041000  36.738000
39   1 0.000000 2.041000  38.779000
40   1 2.041000 0.000000  38.779000
41   1 0.000000 0.000000  40.820000
42   1 2.041000 2.041000  40.820000
43   1 0.000000 2.041000  42.861000
44   1 2.041000 0.000000  42.861000
45   1 0.000000 0.000000  44.902000
46   1 2.041000 2.041000  44.902000
47   1 0.000000 2.041000  46.943000
48   1 2.041000 0.000000  46.943000
49   1 0.000000 0.000000  48.984000
50   1 2.041000 2.041000  48.984000
51   1 0.000000 2.041000  51.025000
52   1 2.041000 0.000000  51.025000
53   1 0.000000 0.000000  53.066000
54   1 2.041000 2.041000  53.066000
55   1 0.000000 2.041000  55.107000
56   1 2.041000 0.000000  55.107000
57   1 0.000000 0.000000  57.148000
58   1 2.041000 2.041000  57.148000
59   1 0.000000 2.041000  59.189000
60   1 2.041000 0.000000  59.189000
61   1 0.000000 0.000000  61.230000
62   1 2.041000 2.041000  61.230000
63   1 0.000000 2.041000  63.271000
64   1 2.041000 0.000000  63.271000
65   1 0.000000 0.000000  65.312000
66   1 2.041000 2.041000  65.312000
67   1 0.000000 2.041000  67.353000
68   1 2.041000 0.000000  67.353000
69   1 0.000000 0.000000  69.394000
70   1 2.041000 2.041000  69.394000
71   1 0.000000 2.041000  71.435000
72   1 2.041000 0.000000  71.435000
73   1 0.000000 0.000000  73.476000
74   1 2.041000 2.041000  73.476000
75   1 0.000000 2.041000  75.517000
76   1 2.041000 0.000000  75.517000
77   1 0.000000 0.000000  77.558000
78   1 2.041000 2.041000  77.558000
79   1 0.000000 2.041000  79.599000
80   1 2.041000 0.000000  79.599000
81   1 0.000000 0.000000  81.640000
82   1 2.041000 2.041000  81.640000
83   1 0.000000 2.041000  83.681000
84   1 2.041000 0.000000  83.681000
85   1 0.000000 0.000000  85.722000
86   1 2.041000 2.041000  85.722000
87   1 0.000000 2.041000  87.763000
88   1 2.041000 0.000000  87.763000
89   1 0.000000 0.000000  89.804000
90   1 2.041000 2.041000  89.804000
91   1 0.000000 2.041000  91.845000
92   1 2.041000 0.000000  91.845000
93   1 0.000000 0.000000  93.886000
94   1 2.041000 2.041000  93.886000
95   1 0.000000 2.041000  95.927000
96   1 2.041000 0.000000  95.927000
97   1 0.000000 0.000000  97.968000
98   1 2.041000 2.041000  97.968000
99   1 0.000000 2.041000 100.009000
100  1 2.041000 0.000000 100.009000
101  1 0.000000 0.000000 102.050000
102  1 2.041000 2.041000 102.050000
103  1 0.000000 2.041000 104.091000
104  1 2.041000 0.000000 104.091000
105  1 0.000000 0.000000 106.132000
106  1 2.041000 2.041000 106.132000
107  1 0.000000 2.041000 108.173000
108  1 2.041000 0.000000 108.173000
109  1 0.000000 0.000000 110.214000
110  1 2.041000 2.041000 110.214000
111  1 0.000000 2.041000 112.255000
112  1 2.041000 0.000000 112.255000
113  1 0.000000 0.000000 114.296000
114  1 2.041000 2.041000 114.296000
115  1 0.000000 2.041000 116.337000
116  1 2.041000 0.000000 116.337000
117  1 0.000000 0.000000 118.378000
118  1 2.041000 2.041000 118.378000
119  1 0.000000 2.041000 120.419000
120  1 2.041000 0.000000 120.419000
121  1 0.000000 0.000000 122.460000
122  1 2.041000 2.041000 122.460000
123  1 0.000000 2.041000 124.501000
124  1 2.041000 0.000000 124.501000
125  1 0.000000 0.000000 126.542000
126  1 2.041000 2.041000 126.542000
127  1 0.000000 2.041000 128.583000
128  1 2.041000 0.000000 128.583000
129  1 0.000000 0.000000 130.624000
130  1 2.041000 2.041000 130.624000
131  1 0.000000 2.041000 132.665000
132  1 2.041000 0.000000 132.665000
133  1 0.000000 0.000000 134.706000
134  1 2.041000 2.041000 134.706000
135  1 0.000000 2.041000 136.747000
136  1 2.041000 0.000000 136.747000
137  1 0.000000 0.000000 138.788000
138  1 2.041000 2.041000 138.788000
139  1 0.000000 2.041000 140.829000
140  1 2.041000 0.000000 140.829000
141  1 0.000000 0.000000 142.870000
142  1 2.041000 2.041000 142.870000
143  1 0.000000 2.041000 144.911000
144  1 2.041000 0.000000 144.911000
145  1 0.000000 0.000000 146.952000
146  1 2.041000 2.041000 146.952000
147  1 0.000000 2.041000 148.993000
148  1 2.041000 0.000000 148.993000
149  1 0.000000 0.000000 151.034000
150  1 2.041000 2.041000 151.034000
151  1 0.000000 2.041000 153.075000
152  1 2.041000 0.000000 153.075000
153  1 0.000000 0.000000 155.116000
154  1 2.041000 2.041000 155.116000
155  1 0.000000 2.041000 157.157000
156  1 2.041000 0.000000 157.157000
157  1 0.000000 0.000000 159.198000
158  1 2.041000 2.041000 159.198000
159  1 0.000000 2.041000 161.239000
160  1 2.041000 0.000000 161.239000
161  1 0.000000 0.000000 163.280000
162  1 2.041000 2.041000 163.280000
163  1 0.000000 2.041000 165.321000
164  1 2.041000 0.000000 165.321000
165  1 0.000000 0.000000 167.362000
166  1 2.041000 2.041000 167.362000
167  1 0.000000 2.041000 169.403000
168  1 2.041000 0.000000 169.403000
169  1 0.000000 0.000000 171.444000
170  1 2.041000 2.041000 171.444000
171  1 0.000000 2.041000 173.485000
172  1 2.041000 0.000000 173.485000
173  1 0.000000 0.000000 175.526000
174  1 2.041000 2.041000 175.526000
175  1 0.000000 2.041000 177.567000
176  1 2.041000 0.000000 177.567000
177  1 0.000000 0.000000 179.608000
178  1 2.041000 2.041000 179.608000
179  1 0.000000 2.041000 181.649000
180  1 2.041000 0.000000 181.649000
181  1 0.000000 0.000000 183.690000
182  1 2.041000 2.041000 183.690000
183  1 0.000000 2.041000 185.731000
184  1 2.041000 0.000000 185.731000
185  1 0.000000 0.000000 187.772000
186  1 2.041000 2.041000 187.772000
187  1 0.000000 2.041000 189.813000
188  1 2.041000 0.000000 189.813000
189  1 0.000000 0.000000 191.854000
190  1 2.041000 2.041000 191.854000
191  1 0.000000 2.041000 193.895000
192  1 2.041000 0.000000 193.895000
193  1 0.000000 0.000000 195.936000
194  1 2.041000 2.041000 195.936000
195  1 0.000000 2.041000 197.977000
196  1 2.041000 0.000000 197.977000
197  1 0.000000 0.000000 200.018000
198  1 2.041000 2.041000 200.018000
199  1 0.000000 2.041000 202.059000
200  1 2.041000 0.000000 202.059000
201  1 0.000000 0.000000 204.100000
202  1 2.041000 2.041000 204.100000
203  1 0.000000 2.041000 206.141000
204  1 2.041000 0.000000 206.141000
205  1 0.000000 0.000000 208.182000
206  1 2.041000 2.041000 208.182000
207  1 0.000000 2.041000 210.223000
208  1 2.041000 0.000000 210.223000
209  1 0.000000 0.000000 212.264000
210  1 2.041000 2.041000 212.264000
211  1 0.000000 2.041000 214.305000
212  1 2.041000 0.000000 214.305000
213  1 0.000000 0.000000 216.346000
214  1 2.041000 2.041000 216.346000
215  1 0.000000 2.041000 218.387000
216  1 2.041000 0.000000 218.387000
217  1 0.000000 0.000000 220.428000
218  1 2.041000 2.041000 220.428000
219  1 0.000000 2.041000 222.469000
220  1 2.041000 0.000000 222.469000
221  1 0.000000 0.000000 224.510000
222  1 2.041000 2.041000 224.510000
223  1 0.000000 2.041000 226.551000
224  1 2.041000 0.000000 226.551000
225  1 0.000000 0.000000 228.592000
226  1 2.041000 2.041000 228.592000
227  1 0.000000 2.041000 230.633000
228  1 2.041000 0.000000 230.633000
229  1 0.000000 0.000000 232.674000
230  1 2.041000 2.041000 232.674000
231  1 0.000000 2.041000 234.715000
232  1 2.041000 0.000000 234.715000
233  1 0.000000 0.000000 236.756000
234  1 2.041000 2.041000 236.756000
235  1 0.000000 2.041000 238.797000
236  1 2.041000 0.000000 238.797000
237  1 0.000000 0.000000 240.838000
238  1 2.041000 2.041000 240.838000
239  1 0.000000 2.041000 242.879000
240  1 2.041000 0.000000 242.879000
241  1 0.000000 0.000000 244.920000
242  1 2.041000 2.041000 244.920000
243  1 0.000000 2.041000 246.961000
244  1 2.041000 0.000000 246.961000
245  1 0.000000 0.000000 249.002000
246  1 2.041000 2.041000 249.002000
247  1 0.000000 2.041000 251.043000
248  1 2.041000 0.000000 251.043000
249  1 0.000000 0.000000 253.084000
250  1 2.041000 2.041000 253.084000
251  1 0.000000 2.041000 255.125000
252  1 2.041000 0.000000 255.125000
253  1 0.000000 0.000000 257.166000
254  1 2.041000 2.041000 257.166000
255  1 0.000000 2.041000 259.207000
256  1 2.041000 0.000000 259.207000
257  1 0.000000 0.000000 261.248000
258  1 2.041000 2.041000 261.248000
259  1 0.000000 2.041000 263.289000
260  1 2.041000 0.000000 263.289000
261  1 0.000000 0.000000 265.330000
262  1 2.041000 2.041000 265.330000
263  1 0.000000 2.041000 267.371000
264  1 2.041000 0.000000 267.371000
265  1 0.000000 0.000000 269.412000
266  1 2.041000 2.041000 269.412000
267  1 0.000000 2.041000 271.453000
268  1 2.041000 0.000000 271.453000
269  1 0.000000 0.000000 273.494000
270  1 2.041000 2.041000 273.494000
271  1 0.000000 2.041000 275.535000
272  1 2.041000 0.000000 275.535000
273  1 0.000000 0.000000 277.576000
274  1 2.041000 2.041000 277.576000
275  1 0.000000 2.041000 279.617000
276  1 2.041000 0.000000 279.617000
277  1 0.000000 0.000000 281.658000
278  1 2.041000 2.041000 281.658000
279  1 0.000000 2.041000 283.699000
280  1 2.041000 0.000000 283.699000
281  1 0.000000 0.000000 285.740000
282  1 2.041000 2.041000 285.740000
283  1 0.000000 2.041000 287.781000
284  1 2.041000 0.000000 287.781000
285  1 0.000000 0.000000 289.822000
286  1 2.041000 2.041000 289.822000
287  1 0.000000 2.041000 291.863000
288  1 2.041000 0.000000 291.863000
289  1 0.000000 0.000000 293.904000
290  1 2.041000 2.041000 293.904000
291  1 0.000000 2.041000 295.945000
292  1 2.041000 0.000000 295.945000
293  1 0.000000 0.000000 297.986000
294  1 2.041000 2.041000 297.986000
295  1 0.000000 2.041000 300.027000
296  1 2.041000 0.000000 300.027000
297  1 0.000000 0.000000 302.068000
298  1 2.041000 2.041000 302.068000
299  1 0.000000 2.041000 304.109000
300  1 2.041000 0.000000 304.109000
301  1 0.000000 0.000000 306.150000
302  1 2.041000 2.041000 306.150000
303  1 0.000000 2.041000 308.191000
304  1 2.041000 0.000000 308.191000
305  1 0.000000 0.000000 310.232000
306  1 2.041000 2.041000 310.232000
307  1 0.000000 2.041000 312.273000
308  1 2.041000 0.000000 312.273000
309  1 0.000000 0.000000 314.314000
310  1 2.041000 2.041000 314.314000
311  1 0.000000 2.041000 316.355000
312  1 2.041000 0.000000 316.355000
313  1 0.000000 0.000000 318.396000
314  1 2.041000 2.041000 318.396000
315  1 0.000000 2.041000 320.437000
316  1 2.041000 0.000000 320.437000
317  1 0.000000 0.000000 322.478000
318  1 2.041000 2.041000 322.478000
319  1 0.000000 2.041000 324.519000
320  1 2.041000 0.000000 324.519000
321  1 0.000000 0.000000 326.560000
322  1 2.041000 2.041000 326.560000
323  1 0.000000 2.041000 328.601000
324  1 2.041000 0.000000 328.601000
325  1 0.000000 0.000000 330.642000
326  1 2.041000 2.041000 330.642000
327  1 0.000000 2.041000 332.683000
328  1 2.041000 0.000000 332.683000
329  1 0.000000 0.000000 334.724000
330  1 2.041000 2.041000 334.724000
331  1 0.000000 2.041000 336.765000
332  1 2.041000 0.000000 336.765000
333  1 0.000000 0.000000 338.806000
334  1 2.041000 2.041000 338.806000
335  1 0.000000 2.041000 340.847000
336  1 2.041000 0.000000 340.847000
337  1 0.000000 0.000000 342.888000
338  1 2.041000 2.041000 342.888000
339  1 0.000000 2.041000 344.929000
340  1 2.041000 0.000000 344.929000
341  1 0.000000 0.000000 346.970000
342  1 2.041000 2.041000 346.970000
343  1 0.000000 2.041000 349.011000
344  1 2.041000 0.000000 349.011000
345  1 0.000000 0.000000 351.052000
346  1 2.041000 2.041000 351.052000
347  1 0.000000 2.041000 353.093000
348  1 2.041000 0.000000 353.093000
349  1 0.000000 0.000000 355.134000
350  1 2.041000 2.041000 355.134000
351  1 0.000000 2.041000 357.175000
352  1 2.041000 0.000000 357.175000
353  1 0.000000 0.000000 359.216000
354  1 2.041000 2.041000 359.216000
355  1 0.000000 2.041000 361.257000
356  1 2.041000 0.000000 361.257000
357  1 0.000000 0.000000 363.298000
358  1 2.041000 2.041000 363.298000
359  1 0.000000 2.041000 365.339000
360  1 2.041000 0.000000 365.339000
361  1 0.000000 0.000000 367.380000
362  1 2.041000 2.041000 367.380000
363  1 0.000000 2.041000 369.421000
364  1 2.041000 0.000000 369.421000
365  1 0.000000 0.000000 371.462000
366  1 2.041000 2.041000 371.462000
367  1 0.000000 2.041000 373.503000
368  1 2.041000 0.000000 373.503000
369  1 0.000000 0.000000 375.544000
370  1 2.041000 2.041000 375.544000
371  1 0.000000 2.041000 377.585000
372  1 2.041000 0.000000 377.585000
373  1 0.000000 0.000000 379.626000
374  1 2.041000 2.041000 379.626000
375  1 0.000000 2.041000 381.667000
376  1 2.041000 0.000000 381.667000
377  1 0.000000 0.000000 383.708000
378  1 2.041000 2.041000 383.708000
379  1 0.000000 2.041000 385.749000
380  1 2.041000 0.000000 385.749000
381  1 0.000000 0.000000 387.790000
382  1 2.041000 2.041000 387.790000
383  1 0.000000 2.041000 389.831000
384  1 2.041000 0.000000 389.831000
385  1 0.000000 0.000000 391.872000
386  1 2.041000 2.041000 391.872000
387  1 0.000000 2.041000 393.913000
388  1 2.041000 0.000000 393.913000
389  1 0.000000 0.000000 395.954000
390  1 2.041000 2.041000 395.954000
391  1 0.000000 2.041000 397.995000
392  1 2.041000 0.000000 397.995000
393  1 0.000000 0.000000 400.036000
394  1 2.041000 2.041000 400.036000
395  1 0.000000 2.041000 402.077000
396  1 2.041000 0.000000 402.077000
397  1 0.000000 0.000000 404.118000
398  1 2.041000 2.041000 404.118000
399  1 0.000000 2.041000 406.159000
400  1 2.041000 0.000000 406.159000

