Generated by pymatgen.io.lammps.data.LammpsData

24  atoms

 1  atom types

0.000000 4.082000  xlo xhi
0.000000 4.082000  ylo yhi
0.000000 40.820000  zlo zhi

Masses

1  107.8682

Atoms

1   1 0.000000 0.000000  0.000000
2   1 2.041000 2.041000  0.000000
3   1 0.000000 2.041000  2.041000
4   1 2.041000 0.000000  2.041000
5   1 0.000000 0.000000  4.082000
6   1 2.041000 2.041000  4.082000
7   1 0.000000 2.041000  6.123000
8   1 2.041000 0.000000  6.123000
9   1 0.000000 0.000000  8.164000
10  1 2.041000 2.041000  8.164000
11  1 0.000000 2.041000 10.205000
12  1 2.041000 0.000000 10.205000
13  1 0.000000 0.000000 12.246000
14  1 2.041000 2.041000 12.246000
15  1 0.000000 2.041000 14.287000
16  1 2.041000 0.000000 14.287000
17  1 0.000000 0.000000 16.328000
18  1 2.041000 2.041000 16.328000
19  1 0.000000 2.041000 18.369000
20  1 2.041000 0.000000 18.369000
21  1 0.000000 0.000000 20.410000
22  1 2.041000 2.041000 20.410000
23  1 0.000000 2.041000 22.451000
24  1 2.041000 0.000000 22.451000

