Generated by pymatgen.io.lammps.data.LammpsData

8  atoms

1  atom types

0.000000 4.082000  xlo xhi
0.000000 4.082000  ylo yhi
0.000000 24.492000  zlo zhi

Masses

1  107.8682

Atoms

1  1 0.000000 0.000000 0.000000
2  1 2.041000 2.041000 0.000000
3  1 0.000000 2.041000 2.041000
4  1 2.041000 0.000000 2.041000
5  1 0.000000 0.000000 4.082000
6  1 2.041000 2.041000 4.082000
7  1 0.000000 2.041000 6.123000
8  1 2.041000 0.000000 6.123000

