Generated by pymatgen.io.lammps.data.LammpsData

48  atoms

 1  atom types

0.000000 4.082000  xlo xhi
0.000000 4.082000  ylo yhi
0.000000 48.984000  zlo zhi

Masses

1  107.8682

Atoms

1   1 0.000000 0.000000  0.000000
2   1 2.041000 2.041000  0.000000
3   1 0.000000 2.041000  2.041000
4   1 2.041000 0.000000  2.041000
5   1 0.000000 0.000000  4.082000
6   1 2.041000 2.041000  4.082000
7   1 0.000000 2.041000  6.123000
8   1 2.041000 0.000000  6.123000
9   1 0.000000 0.000000  8.164000
10  1 2.041000 2.041000  8.164000
11  1 0.000000 2.041000 10.205000
12  1 2.041000 0.000000 10.205000
13  1 0.000000 0.000000 12.246000
14  1 2.041000 2.041000 12.246000
15  1 0.000000 2.041000 14.287000
16  1 2.041000 0.000000 14.287000
17  1 0.000000 0.000000 16.328000
18  1 2.041000 2.041000 16.328000
19  1 0.000000 2.041000 18.369000
20  1 2.041000 0.000000 18.369000
21  1 0.000000 0.000000 20.410000
22  1 2.041000 2.041000 20.410000
23  1 0.000000 2.041000 22.451000
24  1 2.041000 0.000000 22.451000
25  1 0.000000 0.000000 24.492000
26  1 2.041000 2.041000 24.492000
27  1 0.000000 2.041000 26.533000
28  1 2.041000 0.000000 26.533000
29  1 0.000000 0.000000 28.574000
30  1 2.041000 2.041000 28.574000
31  1 0.000000 2.041000 30.615000
32  1 2.041000 0.000000 30.615000
33  1 0.000000 0.000000 32.656000
34  1 2.041000 2.041000 32.656000
35  1 0.000000 2.041000 34.697000
36  1 2.041000 0.000000 34.697000
37  1 0.000000 0.000000 36.738000
38  1 2.041000 2.041000 36.738000
39  1 0.000000 2.041000 38.779000
40  1 2.041000 0.000000 38.779000
41  1 0.000000 0.000000 40.820000
42  1 2.041000 2.041000 40.820000
43  1 0.000000 2.041000 42.861000
44  1 2.041000 0.000000 42.861000
45  1 0.000000 0.000000 44.902000
46  1 2.041000 2.041000 44.902000
47  1 0.000000 2.041000 46.943000
48  1 2.041000 0.000000 46.943000

